----- GAMESS execution script -----
This job is running on host limes.iqm.unicamp.br at Tue Feb 17 16:59:40 BRT 2004
Available scratch disk space (Kbyte units) at beginning of the job is
Filesystem           1k-blocks      Used Available Use% Mounted on
/dev/hda5             55084224  44355184   7930924  85% /home
Initiating 1 compute processes for job Cu 
Executable gamess.00.x will be run from directory /home/lmartinez/hf/gamess 
Working scratch directory on each host will be /home/lmartinez/hf/gamess/scratch 
Running gamess.00.x on limes.iqm.unicamp.br as compute process 0 
Running gamess.00.x on limes.iqm.unicamp.br as data server 1 
          ******************************************************
          *         GAMESS VERSION =  3 JUL 2003 (R2)          *
          *             FROM IOWA STATE UNIVERSITY             *
          * M.W.SCHMIDT, K.K.BALDRIDGE, J.A.BOATZ, S.T.ELBERT, *
          *   M.S.GORDON, J.H.JENSEN, S.KOSEKI, N.MATSUNAGA,   *
          *          K.A.NGUYEN, S.J.SU, T.L.WINDUS,           *
          *       TOGETHER WITH M.DUPUIS, J.A.MONTGOMERY       *
          *         J.COMPUT.CHEM.  14, 1347-1363(1993)        *
          ******************* PC-UNIX VERSION ******************

     SINCE 1993, STUDENTS AND POSTDOCS WORKING AT IOWA STATE UNIVERSITY
     AND ALSO IN THEIR VARIOUS JOBS AFTER LEAVING ISU HAVE MADE IMPORTANT
     CONTRIBUTIONS TO THE CODE:
     CHRISTINE AIKENS, ROB BELL, PRADIPTA BANDYOPADHYAY, BRETT BODE,
     GALINA CHABAN, WEI CHEN, CHEOL CHOI, PAUL DAY, DMITRI FEDOROV,
     GRAHAM FLETCHER, MARK FREITAG, KURT GLAESEMANN, GRANT MERRILL,
     MIKE PAK, JIM SHOEMAKER, TETSUYA TAKETSUGU, SIMON WEBB.

     ADDITIONAL CODE HAS BEEN PROVIDED BY COLLABORATORS IN OTHER GROUPS:
     IOWA STATE UNIVERSITY: JOE IVANIC, KLAUS RUEDENBERG
     UNIVERSITY OF TOKYO: KIMIHIKO HIRAO, HARUYUKI NAKANO, TAKAHITO
     NAKAJIMA, TAKAO TSUNEDA, MUNEAKI KAMIYA, SUSUMU YANAGISAWA
     ODENSE UNIVERSITY: FRANK JENSEN
     UNIVERSITY OF IOWA: VISVALDAS KAIRYS, HUI LI
     NATIONAL INST. OF STANDARDS AND TECHNOLOGY: WALT STEVENS, DAVID GARMER
     UNIVERSITY OF PISA: BENEDETTA MENNUCCI, JACOPO TOMASI
     UNIVERSITY OF MEMPHIS: HENRY KURTZ, PRAKASHAN KORAMBATH
     UNIVERSITY OF ALBERTA: MARIUSZ KLOBUKOWSKI
     UNIVERSITY OF NEW ENGLAND: MARK SPACKMAN
     MIE UNIVERSITY: HIROAKI UMEDA
     MICHIGAN STATE UNIVERSITY: KAROL KOWALSKI, PIOTR PIECUCH
     UNIVERSITY OF SILESIA: MONIKA MUSIAL, STANISLAW KUCHARSKI

 EXECUTION OF GAMESS BEGUN Tue Feb 17 16:59:40 2004

            ECHO OF THE FIRST FEW INPUT CARDS -
 INPUT CARD>! TESTE com Água distorcida                                                     
 INPUT CARD> $CONTRL                                                                        
 INPUT CARD>        SCFTYP=RHF                                                              
 INPUT CARD>        RUNTYP=ENERGY                                                           
 INPUT CARD>        COORD=UNIQUE                                                            
 INPUT CARD>        NZVAR=0                                                                 
 INPUT CARD>        MAXIT=200                                                               
 INPUT CARD>        ICHARG=-2                                                               
 INPUT CARD> $END                                                                           
 INPUT CARD> $SYSTEM                                                                        
 INPUT CARD>        TIMLIM=2                                                                
 INPUT CARD>        MEMORY=100000                                                           
 INPUT CARD> $END                                                                           
 INPUT CARD> $STATPT                                                                        
 INPUT CARD>        OPTTOL=1.0E-5                                                           
 INPUT CARD> $END                                                                           
 INPUT CARD> $BASIS                                                                         
 INPUT CARD>        GBASIS=STO                                                              
 INPUT CARD>        NGAUSS=3                                                                
 INPUT CARD> $END                                                                           
 INPUT CARD> $GUESS                                                                         
 INPUT CARD>        GUESS=HUCKEL                                                            
 INPUT CARD> $END                                                                           
 INPUT CARD> $SCF        Process initiation completed. 
                                                                   
 INPUT CARD>        EXTRAP=.FALSE.                                                          
 INPUT CARD>        DAMP=.FALSE.                                                            
 INPUT CARD>        SHIFT=.FALSE.                                                           
 INPUT CARD>        RSTRCT=.FALSE.                                                          
 INPUT CARD>        DIIS=.TRUE.                                                             
 INPUT CARD>        SOSCF=.TRUE.                                                            
 INPUT CARD>        DEM=.FALSE.                                                             
 INPUT CARD>        ETHRSH = 1.d-2                                                          
 INPUT CARD>        SOGTOL = 1.d2                                                           
 INPUT CARD> $END                                                                           
 INPUT CARD> $DATA                                                                          
 INPUT CARD>CrC...distorted geometry base: STO-2G                                           
 INPUT CARD>C1                                                                              
 INPUT CARD>  Cr  24.  0.000000  0.000000  0.000000                                         
 INPUT CARD>  Cr  24.  0.000000  0.000000  6.000000                                         
 INPUT CARD>$END                                                                            

 ..... DONE SETTING UP THE RUN .....
     100000 WORDS OF MEMORY AVAILABLE

     BASIS OPTIONS
     -------------
     GBASIS=STO          IGAUSS=       3      POLAR=NONE    
     NDFUNC=       0     NFFUNC=       0     DIFFSP=       F
     NPFUNC=       0      DIFFS=       F


     RUN TITLE
     ---------
 CrC...distorted geometry base: STO-2G                                           

 THE POINT GROUP OF THE MOLECULE IS C1      
 THE ORDER OF THE PRINCIPAL AXIS IS     0

 ATOM      ATOMIC                      COORDINATES (BOHR)
           CHARGE         X                   Y                   Z
 CR         24.0     0.0000000000        0.0000000000        0.0000000000
 CR         24.0     0.0000000000        0.0000000000       11.3383559263

          INTERNUCLEAR DISTANCES (ANGS.)
          ------------------------------

                    CR             CR        

  1  CR              0.0000000      6.0000000    
  2  CR              6.0000000      0.0000000    

  * ... LESS THAN  3.000


     ATOMIC BASIS SET
     ----------------
 THE CONTRACTED PRIMITIVE FUNCTIONS HAVE BEEN UNNORMALIZED
 THE CONTRACTED BASIS FUNCTIONS ARE NOW NORMALIZED TO UNITY

 SHELL TYPE PRIMITIVE    EXPONENT          CONTRACTION COEFFICIENTS

 CR        

   1   S    1          1232.3204495      0.154328967295
   1   S    2           224.4687082      0.535328142282
   1   S    3            60.7499925      0.444634542185

   2   L    4            92.7746242     -0.099967229187      0.155916274999
   2   L    5            21.5588275      0.399512826089      0.607683718598
   2   L    6             7.0115998      0.700115468880      0.391957393099

   3   L    7             7.3065962     -0.219620369005      0.010587604289
   3   L    8             2.0385218      0.225595433605      0.595167005266
   3   L    9             0.7978636      0.900398426019      0.462001011973

   4   D   10             5.4554805      0.168659606013
   4   D   11             1.7105740      0.584798481745
   4   D   12             0.6663107      0.405677952331

   5   L   13             0.4101310     -0.308844121382     -0.121546859998
   5   L   14             0.1513641      0.019606411652      0.571522760389
   5   L   15             0.0668440      1.131034441567      0.549894947089

 CR        

   6   S   16          1232.3204495      0.154328967295
   6   S   17           224.4687082      0.535328142282
   6   S   18            60.7499925      0.444634542185

   7   L   19            92.7746242     -0.099967229187      0.155916274999
   7   L   20            21.5588275      0.399512826089      0.607683718598
   7   L   21             7.0115998      0.700115468880      0.391957393099

   8   L   22             7.3065962     -0.219620369005      0.010587604289
   8   L   23             2.0385218      0.225595433605      0.595167005266
   8   L   24             0.7978636      0.900398426019      0.462001011973

   9   D   25             5.4554805      0.168659606013
   9   D   26             1.7105740      0.584798481745
   9   D   27             0.6663107      0.405677952331

  10   L   28             0.4101310     -0.308844121382     -0.121546859998
  10   L   29             0.1513641      0.019606411652      0.571522760389
  10   L   30             0.0668440      1.131034441567      0.549894947089

 TOTAL NUMBER OF BASIS SET SHELLS             =   10
 NUMBER OF CARTESIAN GAUSSIAN BASIS FUNCTIONS =   38
 NUMBER OF ELECTRONS                          =   50
 CHARGE OF MOLECULE                           =   -2
 SPIN MULTIPLICITY                            =    1
 NUMBER OF OCCUPIED ORBITALS (ALPHA)          =   25
 NUMBER OF OCCUPIED ORBITALS (BETA )          =   25
 TOTAL NUMBER OF ATOMS                        =    2
 THE NUCLEAR REPULSION ENERGY IS       50.8010159270

 THIS MOLECULE IS RECOGNIZED AS BEING LINEAR.

     $CONTRL OPTIONS
     ---------------
 SCFTYP=RHF          RUNTYP=ENERGY       EXETYP=RUN     
 MPLEVL=       0     CITYP =NONE         CCTYP =NONE    
 MULT  =       1     ICHARG=      -2     NZVAR =       0     COORD =UNIQUE  
 ECP   =NONE         RELWFN=NONE         LOCAL =NONE    
 ISPHER=      -1     NOSYM =       0     MAXIT =     200     UNITS =ANGS    
 PLTORB=       F     MOLPLT=       F     AIMPAC=       F     FRIEND=        
 NPRINT=       7     IREST =       0     GEOM  =INPUT   
 NORMF =       0     NORMP =       0     ITOL  =      20     ICUT  =       9
 INTTYP=POPLE        QMTTOL= 1.0E-06

     $SYSTEM OPTIONS
     ---------------
  REPLICATED MEMORY=      100000 WORDS (ON EVERY NODE).
 DISTRIBUTED MEMDDI=           0 MILLION WORDS IN AGGREGATE,
 MEMDDI DISTRIBUTED OVER   1 PROCESSORS IS           0 WORDS/PROCESSOR.
 TOTAL MEMORY REQUESTED ON EACH PROCESSOR=      100000 WORDS.
 TIMLIM=       120.0 SECONDS.
 COREFL=F     KDIAG= 0

          ----------------
          PROPERTIES INPUT
          ----------------

     MOMENTS            FIELD           POTENTIAL          DENSITY
 IEMOM =       1   IEFLD =       0   IEPOT =       0   IEDEN =       0
 WHERE =COMASS     WHERE =NUCLEI     WHERE =NUCLEI     WHERE =NUCLEI  
 OUTPUT=BOTH       OUTPUT=BOTH       OUTPUT=BOTH       OUTPUT=BOTH    
 IEMINT=       0   IEFINT=       0                     IEDINT=       0
                                                       MORB  =       0
          DIIS IN EFFECT
          SOSCF IN EFFECT

     -------------------------------
     INTEGRAL TRANSFORMATION OPTIONS
     -------------------------------
     NWORD  =       0     CUTOFF = 1.0E-09
     MPTRAN =       0     DIRTRF =       F
     AOINTS =DUP     

          ----------------------
          INTEGRAL INPUT OPTIONS
          ----------------------
 NOPK  =       1 NORDER=       0 SCHWRZ=       F

     ------------------------------------------
     THE POINT GROUP IS C1 , NAXIS= 0, ORDER= 1
     ------------------------------------------

     DIMENSIONS OF THE SYMMETRY SUBSPACES ARE
 A   =   38

 ..... DONE SETTING UP THE RUN .....
 STEP CPU TIME =     0.02 TOTAL CPU TIME =        0.0 (    0.0 MIN)
 TOTAL WALL CLOCK TIME=        0.1 SECONDS, CPU UTILIZATION IS  22.22%

          ********************
          1 ELECTRON INTEGRALS
          ********************
 ...... END OF ONE-ELECTRON INTEGRALS ......
 STEP CPU TIME =     0.00 TOTAL CPU TIME =        0.0 (    0.0 MIN)
 TOTAL WALL CLOCK TIME=        0.1 SECONDS, CPU UTILIZATION IS  15.38%

          -------------
          GUESS OPTIONS
          -------------
          GUESS =HUCKEL            NORB  =       0          NORDER=       0
          MIX   =       F          PRTMO =       F          PUNMO =       F
          TOLZ  = 1.0E-08          TOLE  = 1.0E-05
          SYMDEN=       F          PURIFY=       F

 INITIAL GUESS ORBITALS GENERATED BY HUCKEL   ROUTINE.
 HUCKEL GUESS REQUIRES     16544 WORDS.

 SYMMETRIES FOR INITIAL GUESS ORBITALS FOLLOW.   BOTH SET(S).
    25 ORBITALS ARE OCCUPIED (   18 CORE ORBITALS).
    19=A       20=A       21=A       22=A       23=A       24=A       25=A   
    26=A       27=A       28=A       29=A       30=A       31=A       32=A   
    33=A       34=A       35=A   
 ...... END OF INITIAL ORBITAL SELECTION ......
 STEP CPU TIME =     0.01 TOTAL CPU TIME =        0.0 (    0.0 MIN)
 TOTAL WALL CLOCK TIME=        0.2 SECONDS, CPU UTILIZATION IS  15.00%

          --------------------
          2 ELECTRON INTEGRALS
          --------------------

 THE -PK- OPTION IS OFF, THE INTEGRALS ARE NOT IN SUPERMATRIX FORM.
 STORING   15000 INTEGRALS/RECORD ON DISK, USING 12 BYTES/INTEGRAL.
 TWO ELECTRON INTEGRAL EVALUATION REQUIRES   60751 WORDS OF MEMORY.
 II,JST,KST,LST =  1  1  1  1 NREC =         1 INTLOC =    1
 II,JST,KST,LST =  2  1  1  1 NREC =         1 INTLOC =    2
 II,JST,KST,LST =  3  1  1  1 NREC =         1 INTLOC =   34
 II,JST,KST,LST =  4  1  1  1 NREC =         1 INTLOC =  214
 II,JST,KST,LST =  5  1  1  1 NREC =         1 INTLOC = 1189
 II,JST,KST,LST =  6  1  1  1 NREC =         1 INTLOC = 2864
 II,JST,KST,LST =  7  1  1  1 NREC =         1 INTLOC = 3079
 II,JST,KST,LST =  8  1  1  1 NREC =         1 INTLOC = 4448
 II,JST,KST,LST =  9  1  1  1 NREC =         1 INTLOC = 7375
 II,JST,KST,LST = 10  1  1  1 NREC =         1 INTLOC =14758
 TOTAL NUMBER OF NONZERO TWO-ELECTRON INTEGRALS =               28965
          2 INTEGRAL RECORDS WERE STORED ON DISK FILE  8.
  ...... END OF TWO-ELECTRON INTEGRALS .....
 STEP CPU TIME =     0.24 TOTAL CPU TIME =        0.3 (    0.0 MIN)
 TOTAL WALL CLOCK TIME=        1.4 SECONDS, CPU UTILIZATION IS  18.62%

          --------------------------
                 RHF SCF CALCULATION
          --------------------------

     NUCLEAR ENERGY =        50.8010159270
     MAXIT =  200     NPUNCH=    2
     EXTRAP=F  DAMP=F  SHIFT=F  RSTRCT=F  DIIS=T  DEM=F  SOSCF=T
     DENSITY MATRIX CONV=  1.00E-05
     SOSCF WILL OPTIMIZE     325 ORBITAL ROTATIONS, SOGTOL= 100.000
     MEMORY REQUIRED FOR RHF STEP=     62580 WORDS.

 ITER EX DEM    TOTAL ENERGY       E CHANGE  DENSITY CHANGE     ORB. GRAD
   1  0  0    -2055.976114595 -2055.976114595   2.087975002   0.000000000
          ---------------START SECOND ORDER SCF---------------
 SOSCF IS SCALING ROTATION ANGLE MATRIX, SQCDF=    0.474427
   2  1  0    -2033.305026302    22.671088293   1.995905876   2.885626444
 SOSCF IS SCALING ROTATION ANGLE MATRIX, SQCDF=    0.252808
   3  2  0    -2046.577585888   -13.272559585   3.399531128   1.242276874
 SOSCF IS SCALING ROTATION ANGLE MATRIX, SQCDF=    0.211817
   4  3  0    -2044.340474495     2.237111393   3.091021387   1.930961870
 SOSCF IS SCALING ROTATION ANGLE MATRIX, SQCDF=    1.057891
   5  4  0    -2047.690984759    -3.350510264   3.516593476   1.634809513
 SOSCF IS SCALING ROTATION ANGLE MATRIX, SQCDF=    1.496578
   6  5  0    -2038.894189169     8.796795590   1.661011133   2.147158732
 SOSCF IS SCALING ROTATION ANGLE MATRIX, SQCDF=    0.416282
   7  6  0    -2037.745385332     1.148803837   3.932488096   1.900827061
 SOSCF IS SCALING ROTATION ANGLE MATRIX, SQCDF=    0.625097
   8  7  0    -2053.259251285   -15.513865953   4.966408300   1.442319096
 SOSCF IS SCALING ROTATION ANGLE MATRIX, SQCDF=    0.195462
   9  8  0    -2053.912901031    -0.653649745   1.139181244   1.602731934
 SOSCF IS SCALING ROTATION ANGLE MATRIX, SQCDF=    0.136711
  10  9  0    -2058.341776468    -4.428875438   2.300397169   1.182629410
  11 10  0    -2058.567311918    -0.225535450   0.791275287   1.038746571
  12 11  0    -2059.643309691    -1.075997772   1.248674025   0.675797209
  13 12  0    -2061.099543534    -1.456233844   1.413453882   0.461013680
  14 13  0    -2061.809282551    -0.709739017   0.805192485   0.700174204
  15 14  0    -2062.673520806    -0.864238255   1.252064879   0.480984040
  16 15  0    -2062.876020829    -0.202500022   0.977154281   0.367801613
  17 16  0    -2063.371012834    -0.494992006   0.828671364   0.413629154
  18 17  0    -2063.630758267    -0.259745433   0.267557304   0.259604927
  19 18  0    -2063.865013782    -0.234255515   0.191260063   0.183955995
  20 19  0    -2063.934051738    -0.069037956   0.269268655   0.127331208
  21 20  0    -2064.026562539    -0.092510801   0.135168851   0.109840567
  22 21  0    -2064.072554144    -0.045991606   0.117898136   0.098451970
  23 22  0    -2064.140308061    -0.067753917   0.140773449   0.071255724
  24 23  0    -2064.175726954    -0.035418893   0.245773165   0.074587011
  25 24  0    -2064.221965647    -0.046238692   0.234594865   0.049282394
  26 25  0    -2064.248133360    -0.026167714   0.094263545   0.054280179
  27 26  0    -2064.267010664    -0.018877303   0.080456853   0.040917059
  28 27  0    -2064.282962853    -0.015952189   0.118813826   0.034223627
  29 28  0    -2064.298554383    -0.015591531   0.228978216   0.027763664
  30 29  0    -2064.313987886    -0.015433503   0.125353953   0.027752051
  31 30  0    -2064.326541151    -0.012553265   0.110829044   0.030852074
  32 31  0    -2064.339655804    -0.013114653   0.131753016   0.019017161
  33 32  0    -2064.346933820    -0.007278015   0.105315610   0.024518751
  34 33  0    -2064.353818643    -0.006884824   0.045568628   0.014165095
  35 34  0    -2064.357180393    -0.003361750   0.058464845   0.019150931
  36 35  0    -2064.360676956    -0.003496563   0.074979030   0.008281713
  37 36  0    -2064.362763156    -0.002086200   0.042229880   0.007580296
  38 37  0    -2064.363810882    -0.001047726   0.025382376   0.008211371
  39 38  0    -2064.364895343    -0.001084461   0.019910351   0.006394524
  40 39  0    -2064.366236026    -0.001340683   0.037642727   0.007263428
  41 40  0    -2064.367458472    -0.001222445   0.053134343   0.006574652
  42 41  0    -2064.368621328    -0.001162857   0.048619012   0.006947395
  43 42  0    -2064.369690156    -0.001068828   0.049043426   0.006722344
  44 43  0    -2064.370923362    -0.001233206   0.054233069   0.006456872
  45 44  0    -2064.372155650    -0.001232289   0.070148856   0.007846086
  46 45  0    -2064.373655405    -0.001499755   0.052325869   0.006659664
  47 46  0    -2064.375095025    -0.001439620   0.066775191   0.008204858
  48 47  0    -2064.376690626    -0.001595601   0.055298210   0.006343528
  49 48  0    -2064.377964695    -0.001274069   0.039167085   0.007757515
  50 49  0    -2064.379085578    -0.001120883   0.044564621   0.005881084
  51 50  0    -2064.380111950    -0.001026372   0.049554850   0.005808287
  52 51  0    -2064.381042342    -0.000930393   0.038799359   0.005159258
  53 52  0    -2064.381637160    -0.000594818   0.028184034   0.005149556
  54 53  0    -2064.382227953    -0.000590792   0.051486776   0.005065077
  55 54  0    -2064.382710317    -0.000482364   0.037122304   0.003586097
  56 55  0    -2064.383317050    -0.000606732   0.026973277   0.003991790
  57 56  0    -2064.383815994    -0.000498945   0.043592349   0.003247887
  58 57  0    -2064.384233091    -0.000417097   0.032495708   0.004522769
  59 58  0    -2064.384497914    -0.000264823   0.013366152   0.003999677
  60 59  0    -2064.384734419    -0.000236505   0.034770172   0.003126110
  61 60  0    -2064.385044424    -0.000310005   0.020399696   0.006724011
  62 61  0    -2064.385290807    -0.000246382   0.029934971   0.002866160
  63 62  0    -2064.385629269    -0.000338462   0.049194708   0.002725225
  64 63  0    -2064.386010204    -0.000380936   0.028548314   0.004696435
  65 64  0    -2064.386248722    -0.000238517   0.037033064   0.003582913
  66 65  0    -2064.386588792    -0.000340070   0.054166479   0.003823192
  67 66  0    -2064.386992771    -0.000403979   0.026411830   0.003273827
  68 67  0    -2064.387222150    -0.000229379   0.028438415   0.002679299
  69 68  0    -2064.387435245    -0.000213095   0.022973076   0.002351748
  70 69  0    -2064.387589618    -0.000154372   0.011524878   0.001880644
  71 70  0    -2064.387707406    -0.000117788   0.014015708   0.001955122
  72 71  0    -2064.387833472    -0.000126066   0.018516539   0.001864089
  73 72  0    -2064.387948126    -0.000114653   0.013564185   0.001894892
  74 73  0    -2064.388049566    -0.000101440   0.016233963   0.002183975
  75 74  0    -2064.388147255    -0.000097689   0.017681096   0.001704700
  76 75  0    -2064.388249550    -0.000102295   0.016127403   0.001995691
  77 76  0    -2064.388351377    -0.000101827   0.019081015   0.001765676
  78 77  0    -2064.388437695    -0.000086317   0.013919291   0.001850034
  79 78  0    -2064.388514542    -0.000076847   0.014339566   0.002035926
  80 79  0    -2064.388594417    -0.000079875   0.019248448   0.001611818
  81 80  0    -2064.388678272    -0.000083855   0.018994546   0.001393053
  82 81  0    -2064.388753684    -0.000075412   0.020752896   0.001739625
  83 82  0    -2064.388818059    -0.000064375   0.018518564   0.001812228
  84 83  0    -2064.388876753    -0.000058694   0.016512759   0.001228425
  85 84  0    -2064.388927373    -0.000050620   0.013905236   0.001155777
  86 85  0    -2064.388970373    -0.000043000   0.012502154   0.001476004
  87 86  0    -2064.389008891    -0.000038518   0.012684197   0.001722927
  88 87  0    -2064.389042489    -0.000033598   0.009083946   0.001077114
  89 88  0    -2064.389068013    -0.000025524   0.009199692   0.000907254
  90 89  0    -2064.389088895    -0.000020883   0.008268732   0.000843324
  91 90  0    -2064.389112148    -0.000023253   0.014539023   0.001347575
  92 91  0    -2064.389143044    -0.000030896   0.016240544   0.001348418
  93 92  0    -2064.389180224    -0.000037180   0.022513970   0.001287894
  94 93  0    -2064.389216836    -0.000036612   0.018224512   0.001194977
  95 94  0    -2064.389250178    -0.000033342   0.027322752   0.001304969
  96 95  0    -2064.389285016    -0.000034838   0.028673831   0.001638831
  97 96  0    -2064.389327365    -0.000042348   0.042607913   0.001437596
  98 97  0    -2064.389373200    -0.000045835   0.031464359   0.001600406
  99 98  0    -2064.389416250    -0.000043050   0.031468040   0.001007857
 100 99  0    -2064.389455660    -0.000039410   0.027416546   0.001366262
 101100  0    -2064.389504283    -0.000048623   0.036933738   0.001518134
 102101  0    -2064.389562932    -0.000058649   0.045707428   0.002158675
 103102  0    -2064.389636095    -0.000073163   0.060936208   0.001781757
 104103  0    -2064.389718026    -0.000081931   0.076133345   0.001397782
 105104  0    -2064.389822367    -0.000104341   0.108881712   0.001991726
 106105  0    -2064.389959998    -0.000137630   0.133991543   0.003150392
 107106  0    -2064.390139908    -0.000179910   0.158213469   0.003769144
 108107  0    -2064.390339247    -0.000199340   0.105766879   0.002624526
 109108  0    -2064.390519224    -0.000179977   0.149014179   0.002182099
 110109  0    -2064.390660448    -0.000141224   0.021378369   0.002487269
 111110  0    -2064.390810651    -0.000150203   0.098276061   0.003226292
 112111  0    -2064.390993398    -0.000182746   0.088945341   0.002518204
 113112  0    -2064.391147742    -0.000154344   0.121076186   0.001808716
 114113  0    -2064.391261717    -0.000113976   0.052717845   0.001846713
 115114  0    -2064.391382160    -0.000120443   0.079050907   0.002331247
 116115  0    -2064.391517495    -0.000135335   0.091447591   0.001755414
 117116  0    -2064.391658427    -0.000140932   0.056025952   0.002158214
 118117  0    -2064.391762898    -0.000104471   0.174216946   0.001970130
 119118  0    -2064.391839000    -0.000076102   0.049242272   0.002031179
 120119  0    -2064.391900814    -0.000061814   0.037650003   0.002109738
 121120  0    -2064.391960323    -0.000059509   0.059658623   0.001146210
 122121  0    -2064.392002951    -0.000042628   0.032094338   0.000711533
 123122  0    -2064.392025178    -0.000022227   0.032695897   0.000747978
 124123  0    -2064.392045081    -0.000019902   0.021287841   0.000881014
 125124  0    -2064.392056727    -0.000011647   0.016351388   0.000696049
 126125  0    -2064.392067708    -0.000010981   0.015486604   0.000667982
 127126  0    -2064.392078664    -0.000010956   0.012912326   0.000604325
 128127  0    -2064.392091644    -0.000012981   0.018267067   0.000834817
 129128  0    -2064.392105511    -0.000013867   0.014912721   0.000709550
 130129  0    -2064.392119698    -0.000014187   0.026088265   0.000711607
 131130  0    -2064.392134406    -0.000014708   0.022443450   0.000644113
 132131  0    -2064.392151791    -0.000017384   0.045496739   0.000867537
 133132  0    -2064.392173747    -0.000021956   0.041391471   0.000998742
 134133  0    -2064.392201115    -0.000027368   0.062055642   0.000805428
 135134  0    -2064.392231491    -0.000030376   0.032990725   0.000931225
 136135  0    -2064.392263032    -0.000031541   0.059980203   0.001086326
 137136  0    -2064.392292292    -0.000029260   0.019360635   0.001504216
 138137  0    -2064.392318455    -0.000026163   0.031582276   0.001109986
 139138  0    -2064.392338881    -0.000020426   0.007998352   0.000705329
 140139  0    -2064.392355471    -0.000016590   0.011236131   0.000580364
 141140  0    -2064.392367164    -0.000011693   0.013019507   0.000901090
 142141  0    -2064.392376687    -0.000009523   0.011857508   0.000721046
 143142  0    -2064.392383345    -0.000006659   0.007588764   0.000389982
 144143  0    -2064.392388003    -0.000004658   0.004149629   0.000246139
 145144  0    -2064.392391948    -0.000003945   0.002674823   0.000461246
 146145  0    -2064.392395663    -0.000003715   0.006089961   0.000460569
 147146  0    -2064.392398805    -0.000003141   0.004591554   0.000298124
 148147  0    -2064.392401214    -0.000002409   0.005448358   0.000220552
 149148  0    -2064.392403230    -0.000002016   0.002362921   0.000191090
 150149  0    -2064.392405290    -0.000002060   0.002627500   0.000224917
 151150  0    -2064.392407599    -0.000002309   0.005542236   0.000300197
 152151  0    -2064.392410052    -0.000002453   0.005656385   0.000233764
 153152  0    -2064.392412415    -0.000002363   0.006031900   0.000242003
 154153  0    -2064.392414600    -0.000002185   0.005016089   0.000260567
 155154  0    -2064.392416692    -0.000002092   0.004601741   0.000252628
 156155  0    -2064.392418699    -0.000002006   0.003980051   0.000216104
 157156  0    -2064.392420544    -0.000001845   0.003976848   0.000150952
 158157  0    -2064.392422346    -0.000001802   0.005847206   0.000175603
 159158  0    -2064.392424544    -0.000002198   0.009301617   0.000274972
 160159  0    -2064.392427834    -0.000003290   0.017541285   0.000361125
 161160  0    -2064.392432980    -0.000005146   0.025924803   0.000374941
 162161  0    -2064.392440329    -0.000007349   0.035923197   0.000445783
 163162  0    -2064.392449277    -0.000008948   0.034686351   0.000381610
 164163  0    -2064.392458743    -0.000009466   0.038019507   0.000429918
 165164  0    -2064.392468243    -0.000009500   0.030080621   0.000475080
 166165  0    -2064.392478009    -0.000009766   0.050227114   0.000532938
 167166  0    -2064.392487950    -0.000009941   0.026876745   0.000533142
 168167  0    -2064.392497922    -0.000009972   0.055730418   0.000512539
 169168  0    -2064.392507487    -0.000009565   0.030317870   0.000459537
 170169  0    -2064.392518327    -0.000010840   0.037511221   0.000419653
 171170  0    -2064.392530072    -0.000011745   0.038585961   0.000541656
 172171  0    -2064.392544029    -0.000013958   0.047431698   0.000580031
 173172  0    -2064.392559760    -0.000015731   0.054346162   0.000666113
 174173  0    -2064.392574767    -0.000015007   0.045375051   0.000503774
 175174  0    -2064.392585009    -0.000010243   0.028275657   0.000373416
 176175  0    -2064.392590344    -0.000005335   0.031084879   0.000284094
 177176  0    -2064.392593743    -0.000003399   0.005315746   0.000288768
 178177  0    -2064.392596492    -0.000002749   0.008142898   0.000200386
 179178  0    -2064.392599901    -0.000003409   0.012428982   0.000170057
 180179  0    -2064.392602111    -0.000002210   0.025342787   0.000216497
 181180  0    -2064.392605166    -0.000003054   0.022868002   0.000214475
 182181  0    -2064.392607804    -0.000002638   0.023993428   0.000243068
 183182  0    -2064.392610924    -0.000003120   0.018259597   0.000277870
 184183  0    -2064.392614110    -0.000003186   0.013387155   0.000280884
 185184  0    -2064.392617515    -0.000003405   0.008322137   0.000289760
 186185  0    -2064.392620792    -0.000003277   0.007721312   0.000326780
 187186  0    -2064.392623822    -0.000003030   0.010240504   0.000257707
 188187  0    -2064.392626486    -0.000002664   0.014622073   0.000201095
 189188  0    -2064.392628694    -0.000002208   0.013989323   0.000199865
 190189  0    -2064.392630268    -0.000001573   0.010789768   0.000170702
 191190  0    -2064.392631281    -0.000001014   0.004823934   0.000179977
 192191  0    -2064.392631988    -0.000000706   0.003011743   0.000122445
 193192  0    -2064.392632554    -0.000000566   0.003587486   0.000106904
 194193  0    -2064.392632966    -0.000000412   0.000955128   0.000078154
 195194  0    -2064.392633201    -0.000000234   0.001789262   0.000054656
 196195  0    -2064.392633330    -0.000000129   0.002273608   0.000042087
 197196  0    -2064.392633425    -0.000000095   0.002556347   0.000037627
 198197  0    -2064.392633507    -0.000000083   0.002787379   0.000048540
 199198  0    -2064.392633566    -0.000000059   0.001941821   0.000033958
 200199  0    -2064.392633608    -0.000000042   0.001869174   0.000029721

 SCF IS UNCONVERGED, TOO MANY ITERATIONS
     TIME TO FORM FOCK OPERATORS=       0.4 SECONDS (       0.0 SEC/ITER)
     TIME TO SOLVE SCF EQUATIONS=       1.2 SECONDS (       0.0 SEC/ITER)

 FINAL RHF ENERGY IS        0.0000000000 AFTER 200 ITERATIONS

          ------------
          EIGENVECTORS
          ------------

                      1          2          3          4          5
                 -216.9985  -213.9154   -24.7881   -21.7451   -21.0297
                     A          A          A          A          A   
    1  CR  1  S   0.992308   0.000001  -0.413303  -0.000017  -0.000034
    2  CR  1  S   0.020466  -0.000002   1.031515   0.000059   0.000087
    3  CR  1  X   0.000000   0.000000   0.000000   0.000000  -0.377205
    4  CR  1  Y   0.000000   0.000000   0.000003   0.000023   0.909743
    5  CR  1  Z  -0.000003   0.000001  -0.000780   0.000003   0.094818
    6  CR  1  S  -0.014203   0.000025   0.276798  -0.000393   0.000003
    7  CR  1  X   0.000000   0.000000   0.000002   0.000000  -0.011990
    8  CR  1  Y   0.000000   0.000001  -0.000016  -0.000073   0.028951
    9  CR  1  Z   0.000001  -0.000004  -0.000088   0.000081   0.003016
   10  CR  1 XX   0.005206  -0.000011  -0.094936   0.000182  -0.000010
   11  CR  1 YY   0.005207  -0.000017  -0.094777   0.000418   0.000057
   12  CR  1 ZZ   0.005207  -0.000010  -0.094897  -0.000022  -0.000057
   13  CR  1 XY   0.000000   0.000001  -0.000025  -0.000037  -0.000053
   14  CR  1 XZ   0.000000   0.000000   0.000005   0.000014   0.000011
   15  CR  1 YZ   0.000000   0.000002  -0.000036  -0.000116   0.000014
   16  CR  1  S  -0.000769   0.000015   0.013254  -0.000248   0.000022
   17  CR  1  X   0.000000   0.000000  -0.000007  -0.000024   0.001057
   18  CR  1  Y   0.000000  -0.000003   0.000055   0.000194  -0.002621
   19  CR  1  Z  -0.000001   0.000021   0.000002  -0.000289  -0.000277
   20  CR  2  S   0.000000   0.992311   0.000000  -0.413421   0.000003
   21  CR  2  S  -0.000002   0.020456   0.000015   1.031874  -0.000008
   22  CR  2  X   0.000000   0.000002  -0.000005  -0.000120   0.000009
   23  CR  2  Y   0.000000  -0.000001   0.000009  -0.000214  -0.000002
   24  CR  2  Z  -0.000001   0.000001   0.000010  -0.000385  -0.000008
   25  CR  2  S   0.000025  -0.014165  -0.000423   0.275615   0.000015
   26  CR  2  X   0.000000  -0.000005   0.000015   0.000331  -0.000026
   27  CR  2  Y   0.000000   0.000002  -0.000025   0.000602   0.000005
   28  CR  2  Z   0.000004  -0.000005  -0.000050   0.000614   0.000023
   29  CR  2 XX  -0.000013   0.005198   0.000102  -0.094428  -0.000031
   30  CR  2 YY  -0.000012   0.005208   0.000417  -0.095379   0.000041
   31  CR  2 ZZ  -0.000012   0.005200   0.000107  -0.094232  -0.000017
   32  CR  2 XY   0.000000   0.000002   0.000047  -0.000144   0.000011
   33  CR  2 XZ   0.000000   0.000003   0.000007   0.000271   0.000020
   34  CR  2 YZ   0.000000   0.000000   0.000000  -0.000037  -0.000002
   35  CR  2  S   0.000016  -0.000782  -0.000165   0.014242   0.000037
   36  CR  2  X   0.000000   0.000001   0.000000   0.000255   0.000008
   37  CR  2  Y   0.000000   0.000000  -0.000001   0.000001   0.000011
   38  CR  2  Z  -0.000020  -0.000002   0.000337   0.000103   0.000012

                      6          7          8          9         10
                  -20.9999   -20.9818   -17.9672   -17.9565   -17.9394
                     A          A          A          A          A   
    1  CR  1  S   0.000156  -0.000300  -0.000017  -0.000012   0.000010
    2  CR  1  S  -0.000396   0.000757   0.000057   0.000040  -0.000031
    3  CR  1  X   0.793858   0.454118   0.000008  -0.000022  -0.000015
    4  CR  1  Y   0.376528   0.097251   0.000037   0.000002   0.000004
    5  CR  1  Z  -0.454665   0.873450   0.000057   0.000121  -0.000077
    6  CR  1  S  -0.000072   0.000155  -0.000258  -0.000195   0.000155
    7  CR  1  X   0.025480   0.014659  -0.000022   0.000063   0.000042
    8  CR  1  Y   0.012123   0.003149  -0.000122  -0.000005  -0.000009
    9  CR  1  Z  -0.014594   0.028180  -0.000171  -0.000389   0.000249
   10  CR  1 XX  -0.000116  -0.000056  -0.000643  -0.000026   0.000889
   11  CR  1 YY   0.000009  -0.000051   0.001047  -0.000005  -0.000586
   12  CR  1 ZZ   0.000209  -0.000104  -0.000178   0.000224  -0.000456
   13  CR  1 XY   0.000120   0.000077  -0.000262  -0.000003   0.000228
   14  CR  1 XZ  -0.000036  -0.000048   0.000044  -0.000005  -0.000011
   15  CR  1 YZ  -0.000040   0.000185  -0.000324   0.000045   0.000043
   16  CR  1  S  -0.000032   0.000054   0.000191   0.000097  -0.000110
   17  CR  1  X  -0.002165  -0.001240  -0.000076   0.000017   0.000018
   18  CR  1  Y  -0.001162  -0.000300   0.000510  -0.000075  -0.000023
   19  CR  1  Z   0.001294  -0.002382   0.000024   0.001164  -0.000806
   20  CR  2  S  -0.000009   0.000012  -0.000153   0.000104  -0.000062
   21  CR  2  S   0.000027  -0.000033   0.000461  -0.000348   0.000212
   22  CR  2  X  -0.000008  -0.000008   0.066912   0.576844   0.801701
   23  CR  2  Y  -0.000008   0.000020   0.828756  -0.469895   0.268144
   24  CR  2  Z   0.000007  -0.000008   0.537266   0.653886  -0.514714
   25  CR  2  S  -0.000085   0.000089  -0.001341   0.001519  -0.000956
   26  CR  2  X   0.000023   0.000023   0.002704   0.015775   0.025451
   27  CR  2  Y   0.000020  -0.000055   0.024999  -0.015115   0.008976
   28  CR  2  Z  -0.000025   0.000036   0.016250   0.018122  -0.014415
   29  CR  2 XX   0.000024  -0.000062   0.001139  -0.000814   0.000519
   30  CR  2 YY   0.000067  -0.000020  -0.000312   0.001197  -0.000686
   31  CR  2 ZZ   0.000011  -0.000062   0.000019  -0.001066   0.000555
   32  CR  2 XY   0.000006   0.000006  -0.000265   0.000330  -0.000206
   33  CR  2 XZ  -0.000020  -0.000004  -0.001899  -0.000786   0.000347
   34  CR  2 YZ   0.000003   0.000000   0.000363   0.000048   0.000007
   35  CR  2  S  -0.000031   0.000159   0.001623  -0.001115   0.000579
   36  CR  2  X  -0.000003   0.000005  -0.001544  -0.002460  -0.002061
   37  CR  2  Y   0.000008  -0.000001  -0.002180   0.001384  -0.000741
   38  CR  2  Z   0.000025  -0.000133  -0.001473  -0.003365   0.002504

                     11         12         13         14         15
                   -2.4977    -1.3213    -1.2990    -1.2847    -0.1914
                     A          A          A          A          A   
    1  CR  1  S   0.151827   0.000358  -0.000852   0.001602  -0.000170
    2  CR  1  S  -0.459242  -0.001165   0.002636  -0.004940   0.000608
    3  CR  1  X  -0.000070   0.139824  -0.301515  -0.158013  -0.000101
    4  CR  1  Y   0.000246  -0.336363  -0.138577  -0.031202  -0.000894
    5  CR  1  Z   0.002691  -0.032600   0.157341  -0.332230  -0.004193
    6  CR  1  S   1.238188   0.004961  -0.008044   0.014659  -0.003872
    7  CR  1  X   0.000211  -0.396876   0.855517   0.448107   0.000370
    8  CR  1  Y  -0.000807   0.954235   0.392181   0.088043   0.002397
    9  CR  1  Z  -0.007414   0.091831  -0.446251   0.942672   0.013456
   10  CR  1 XX  -0.085934   0.044149  -0.012984  -0.015233   0.020259
   11  CR  1 YY  -0.081962  -0.008150   0.038565   0.020717  -0.002718
   12  CR  1 ZZ  -0.088714  -0.039850  -0.022811  -0.009880  -0.013109
   13  CR  1 XY  -0.000622   0.006994  -0.004526  -0.003806   0.003539
   14  CR  1 XZ   0.000240   0.000511   0.002275   0.000446   0.000134
   15  CR  1 YZ  -0.001842  -0.006566  -0.017559  -0.003274  -0.002174
   16  CR  1  S   0.046326  -0.006129   0.010477  -0.020478   0.002877
   17  CR  1  X  -0.000410  -0.022146   0.037826   0.019983  -0.001005
   18  CR  1  Y   0.003078   0.068593   0.046383   0.016592   0.004225
   19  CR  1  Z  -0.003154   0.025610  -0.025901   0.030257  -0.046385
   20  CR  2  S  -0.000001  -0.000028   0.000265   0.000160   0.143386
   21  CR  2  S   0.000034   0.000074  -0.000874  -0.000634  -0.435253
   22  CR  2  X  -0.000503  -0.001186   0.002000  -0.002448   0.048647
   23  CR  2  Y  -0.000548  -0.001716  -0.000287  -0.005262   0.109565
   24  CR  2  Z  -0.000096  -0.001900  -0.000681   0.004160   0.046916
   25  CR  2  S  -0.000856   0.000092   0.003974   0.004749   1.203381
   26  CR  2  X   0.001498   0.003440  -0.006146   0.007212  -0.136342
   27  CR  2  Y   0.001588   0.004819   0.000855   0.015131  -0.308805
   28  CR  2  Z   0.000367   0.006141   0.001646  -0.011869  -0.138990
   29  CR  2 XX  -0.001586   0.006992  -0.007214   0.001314  -0.073509
   30  CR  2 YY   0.005702  -0.014694   0.001768  -0.001776  -0.080574
   31  CR  2 ZZ  -0.002690   0.007161   0.002118  -0.005095  -0.136786
   32  CR  2 XY   0.001095  -0.003263   0.001310  -0.000461  -0.000312
   33  CR  2 XZ  -0.001745  -0.000127   0.013722  -0.008985  -0.091470
   34  CR  2 YZ   0.000253  -0.000046  -0.001762   0.001195   0.011210
   35  CR  2  S   0.001631  -0.000289  -0.005279  -0.019902  -0.088124
   36  CR  2  X  -0.001389   0.000317   0.009849  -0.006610  -0.078424
   37  CR  2  Y   0.000276   0.000257  -0.001097   0.001614  -0.006148
   38  CR  2  Z   0.000813  -0.019160   0.003784   0.012734   0.026530

                     16         17         18         19         20
                    0.2075     0.3359     0.3518     0.3817     0.6179
                     A          A          A          A          A   
    1  CR  1  S  -0.034438   0.000513   0.000840  -0.005870   0.004302
    2  CR  1  S   0.113856  -0.001612  -0.002877   0.019395  -0.014087
    3  CR  1  X  -0.000289  -0.005167  -0.004452   0.002955   0.000996
    4  CR  1  Y  -0.000005   0.029031  -0.042546  -0.000563   0.020681
    5  CR  1  Z  -0.014182   0.015118  -0.011228  -0.001897   0.000941
    6  CR  1  S  -0.516054   0.004913   0.016111  -0.087654   0.060374
    7  CR  1  X   0.000885   0.015785   0.010630  -0.008554  -0.001821
    8  CR  1  Y  -0.000039  -0.090019   0.133266   0.002592  -0.064186
    9  CR  1  Z   0.042252  -0.050697   0.036058   0.006249  -0.003476
   10  CR  1 XX   0.225319   0.262232  -0.152168   0.013019   0.177435
   11  CR  1 YY   0.127379   0.094935  -0.331184   0.003605   0.053178
   12  CR  1 ZZ   0.077002  -0.358574   0.466179   0.056177  -0.276852
   13  CR  1 XY   0.015085   0.025399   0.028393   0.001475   0.018832
   14  CR  1 XZ   0.000973   0.013597  -0.025326  -0.001642   0.009674
   15  CR  1 YZ  -0.011733  -0.123237   0.212747   0.014382  -0.087983
   16  CR  1  S   0.950442  -0.020108  -0.006783   0.161817  -0.123113
   17  CR  1  X  -0.000122  -0.029437   0.048639   0.005100  -0.021220
   18  CR  1  Y   0.000895   0.223323  -0.363555  -0.029511   0.160158
   19  CR  1  Z  -0.062742   0.219643  -0.122689  -0.023541   0.023409
   20  CR  2  S  -0.008514  -0.013003  -0.007560   0.054025   0.011637
   21  CR  2  S   0.025490   0.039029   0.025192  -0.165443  -0.040074
   22  CR  2  X   0.044543  -0.221264  -0.132625  -0.203391   0.081788
   23  CR  2  Y   0.044283   0.192865   0.140648  -0.188074   0.052998
   24  CR  2  Z  -0.031069   0.045948  -0.154965  -0.051266  -0.280130
   25  CR  2  S  -0.062573  -0.097764  -0.117700   0.490294   0.213710
   26  CR  2  X  -0.126325   0.631441   0.380946   0.571702  -0.235124
   27  CR  2  Y  -0.126287  -0.551361  -0.404492   0.537076  -0.149672
   28  CR  2  Z   0.089114  -0.124581   0.440325   0.153774   0.803890
   29  CR  2 XX   0.011056   0.094472   0.038876  -0.173564  -0.082795
   30  CR  2 YY  -0.002818  -0.154742   0.100003  -0.054520  -0.103354
   31  CR  2 ZZ  -0.005113   0.068239  -0.037957   0.056152  -0.021684
   32  CR  2 XY  -0.001816  -0.036563   0.010037   0.016002  -0.003041
   33  CR  2 XZ  -0.027253  -0.042109  -0.113090   0.332426   0.078978
   34  CR  2 YZ   0.003201   0.003667   0.014208  -0.041605  -0.010739
   35  CR  2  S  -0.015264  -0.024619   0.220777  -0.181294  -0.463158
   36  CR  2  X  -0.028301   0.003651  -0.062389   0.281599   0.044193
   37  CR  2  Y  -0.003224  -0.021263  -0.012689  -0.005309  -0.012652
   38  CR  2  Z  -0.054722  -0.221825   0.165855  -0.011537  -0.021398

                     21         22         23         24         25
                    0.6253     0.7458     0.7505     0.7584     0.8268
                     A          A          A          A          A   
    1  CR  1  S  -0.000939   0.000405   0.000169   0.002488  -0.000779
    2  CR  1  S   0.002984  -0.001438  -0.000655  -0.007988   0.002759
    3  CR  1  X   0.006962  -0.003622  -0.012783  -0.010123   0.001790
    4  CR  1  Y   0.011481   0.018783   0.000503  -0.009942   0.016231
    5  CR  1  Z  -0.009020   0.008447   0.025510  -0.006135  -0.034118
    6  CR  1  S  -0.011218   0.008684   0.004837   0.030763  -0.017944
    7  CR  1  X  -0.018916   0.011035   0.035930   0.027881  -0.003959
    8  CR  1  Y  -0.038579  -0.058846   0.000830   0.034284  -0.051640
    9  CR  1  Z   0.028458  -0.031624  -0.083340   0.017753   0.115169
   10  CR  1 XX  -0.065577  -0.011478   0.453462   0.657228   0.402171
   11  CR  1 YY   0.235398   0.170898  -0.347495  -0.582002  -0.010719
   12  CR  1 ZZ  -0.163301  -0.169291  -0.111892  -0.095021  -0.369627
   13  CR  1 XY  -0.046815  -0.028413   0.123789   0.191585   0.063338
   14  CR  1 XZ   0.013233   0.011499  -0.009858  -0.019660   0.008493
   15  CR  1 YZ  -0.104236  -0.092695   0.057461   0.127675  -0.089194
   16  CR  1  S  -0.002195  -0.013589  -0.012868  -0.058940  -0.007882
   17  CR  1  X  -0.023096  -0.019601   0.008285   0.026732  -0.023556
   18  CR  1  Y   0.169714   0.157433  -0.065849  -0.174765   0.163901
   19  CR  1  Z  -0.084370   0.215163   0.311868  -0.014766  -0.529879
   20  CR  2  S  -0.007727   0.005216   0.011138  -0.007520  -0.004748
   21  CR  2  S   0.025219  -0.008062  -0.033240   0.023527   0.016507
   22  CR  2  X  -0.016188   0.050660  -0.045188   0.091010  -0.063426
   23  CR  2  Y   0.050275  -0.030568  -0.127873   0.053803  -0.055921
   24  CR  2  Z  -0.003498  -0.130490  -0.065960   0.062863   0.022068
   25  CR  2  S  -0.109934  -0.141009   0.079232  -0.080683  -0.090595
   26  CR  2  X   0.043826  -0.148023   0.137909  -0.270575   0.184873
   27  CR  2  Y  -0.140921   0.082640   0.362996  -0.147129   0.152073
   28  CR  2  Z   0.005303   0.377874   0.194761  -0.176565  -0.076481
   29  CR  2 XX  -0.458282   0.147627  -0.008415  -0.151503   0.176211
   30  CR  2 YY   0.906774  -0.122612   0.292992   0.065956  -0.100445
   31  CR  2 ZZ  -0.358093   0.248865  -0.284179   0.129398   0.013380
   32  CR  2 XY   0.204582  -0.041048   0.045737   0.031749  -0.041137
   33  CR  2 XZ   0.131040   0.149942  -0.423062   0.414648  -0.216055
   34  CR  2 YZ  -0.013245  -0.020287   0.056712  -0.053653   0.027682
   35  CR  2  S   0.152250   0.766130   0.052953   0.080338   0.170419
   36  CR  2  X   0.078982   0.118703  -0.327394   0.301291  -0.142232
   37  CR  2  Y  -0.015268  -0.010123   0.058562  -0.047006   0.026160
   38  CR  2  Z   0.095856  -0.105391  -0.299546   0.027929   0.555061

                     26         27         28         29         30
                    0.9169     1.2764     1.3326     1.3375     1.3459
                     A          A          A          A          A   
    1  CR  1  S  -0.004985   0.001066   0.000180  -0.003952   0.001299
    2  CR  1  S   0.018976  -0.003769   0.000007   0.015374  -0.005369
    3  CR  1  X  -0.025064   0.011346   0.019020   0.001362   0.064688
    4  CR  1  Y   0.038655   0.006138   0.020719   0.039592   0.004011
    5  CR  1  Z   0.010785  -0.012808  -0.020203  -0.003854   0.006783
    6  CR  1  S  -0.150637   0.023176  -0.015992  -0.129614   0.052371
    7  CR  1  X   0.082819  -0.037322  -0.062990  -0.004649  -0.213854
    8  CR  1  Y  -0.126966  -0.020233  -0.068070  -0.130343  -0.013332
    9  CR  1  Z  -0.035676   0.042472   0.067132   0.012749  -0.022515
   10  CR  1 XX   0.001610  -0.165696  -0.014069   0.016848  -0.024807
   11  CR  1 YY  -0.071818   0.073160   0.154736  -0.411417  -0.018708
   12  CR  1 ZZ   0.268185   0.066410  -0.109394   0.569772  -0.031578
   13  CR  1 XY   0.140755   0.683043   0.049848   0.035344   0.010339
   14  CR  1 XZ   0.205985   0.560053  -0.450749  -0.335935   0.031584
   15  CR  1 YZ   0.455646  -0.031279   0.633388  -0.446883  -0.068717
   16  CR  1  S   0.019113  -0.021513  -0.040685  -0.004008   0.018454
   17  CR  1  X  -0.337549   0.140395   0.256580   0.020409   0.870835
   18  CR  1  Y   0.502380   0.081121   0.267991   0.524444   0.055450
   19  CR  1  Z   0.140679  -0.174466  -0.294388  -0.042626   0.095278
   20  CR  2  S   0.008361  -0.002821  -0.009087  -0.007692   0.008946
   21  CR  2  S  -0.032708   0.010711   0.035199   0.030357  -0.035196
   22  CR  2  X  -0.005045  -0.004677   0.001992  -0.009012  -0.011886
   23  CR  2  Y   0.037993  -0.024270  -0.019450  -0.017296   0.031946
   24  CR  2  Z   0.011452  -0.012444  -0.021627  -0.001459   0.007253
   25  CR  2  S   0.279585  -0.084261  -0.293026  -0.265474   0.305220
   26  CR  2  X   0.016489   0.015437  -0.006502   0.029671   0.039035
   27  CR  2  Y  -0.125566   0.080251   0.064301   0.057221  -0.105569
   28  CR  2  Z  -0.037974   0.041276   0.071730   0.004823  -0.024049
   29  CR  2 XX  -0.163756   0.019659   0.155951   0.072514  -0.192606
   30  CR  2 YY  -0.100702   0.041862   0.129432   0.141898  -0.120075
   31  CR  2 ZZ  -0.115767   0.048719   0.108444   0.150207  -0.105023
   32  CR  2 XY  -0.124385  -0.032144   0.003711  -0.102848  -0.104723
   33  CR  2 XZ   0.084302   0.001968  -0.034320   0.039987   0.118215
   34  CR  2 YZ  -0.047424  -0.064784  -0.015203  -0.104933  -0.078277
   35  CR  2  S   0.012105   0.014208   0.006548  -0.026694   0.023810
   36  CR  2  X  -0.064048  -0.062370   0.025199  -0.118809  -0.154929
   37  CR  2  Y   0.510354  -0.326612  -0.261662  -0.233348   0.429279
   38  CR  2  Z   0.158331  -0.172115  -0.298568  -0.019945   0.100257

                     31         32         33         34         35
                    1.3593     2.4591     2.8065     2.8398     2.8653
                     A          A          A          A          A   
    1  CR  1  S  -0.000652   0.137712  -0.000787   0.000214  -0.000350
    2  CR  1  S   0.004005  -0.544882   0.003039  -0.000782   0.001331
    3  CR  1  X  -0.004740  -0.001432   0.002882  -0.002636   0.001788
    4  CR  1  Y  -0.001816   0.002495   0.007267   0.000806   0.002426
    5  CR  1  Z  -0.036947  -0.001312   0.000416  -0.002005   0.001002
    6  CR  1  S  -0.066764   4.795149  -0.025108   0.005415  -0.010513
    7  CR  1  X   0.015688   0.004720  -0.009540   0.008707  -0.005914
    8  CR  1  Y   0.005920  -0.008141  -0.023907  -0.002645  -0.007979
    9  CR  1  Z   0.122526   0.004136  -0.001374   0.006650  -0.003319
   10  CR  1 XX   0.021815  -2.201001  -0.015223  -0.003365   0.010581
   11  CR  1 YY  -0.030958  -2.218518  -0.023391  -0.012553  -0.014021
   12  CR  1 ZZ   0.119350  -2.183927   0.072247   0.009311   0.017226
   13  CR  1 XY   0.078130   0.004368   0.089933   0.001437  -0.032681
   14  CR  1 XZ  -0.028719  -0.007577  -0.032403  -0.006203   0.032474
   15  CR  1 YZ  -0.232686   0.000758  -0.003106  -0.002522   0.021496
   16  CR  1  S  -0.082907   0.551275   0.000571  -0.002968   0.001522
   17  CR  1  X  -0.065565  -0.018958   0.037757  -0.035314   0.024685
   18  CR  1  Y  -0.021535   0.030916   0.095418   0.010491   0.031835
   19  CR  1  Z  -0.505514  -0.012471   0.005942  -0.027617   0.013526
   20  CR  2  S  -0.012165   0.000387   0.001805   0.000515   0.000127
   21  CR  2  S   0.046878  -0.001381  -0.007192  -0.002149  -0.000457
   22  CR  2  X   0.025052   0.000358  -0.015954  -0.020366   0.014256
   23  CR  2  Y   0.040000   0.000938   0.003101   0.003488   0.003040
   24  CR  2  Z  -0.037030   0.000263   0.001811  -0.002659   0.002414
   25  CR  2  S  -0.384711   0.008807   0.064392   0.021335   0.003058
   26  CR  2  X  -0.082467  -0.001178   0.052471   0.066904  -0.046802
   27  CR  2  Y  -0.132304  -0.003101  -0.010322  -0.011485  -0.010045
   28  CR  2  Z   0.122830  -0.000943  -0.006008   0.008811  -0.008000
   29  CR  2 XX   0.295859  -0.004231  -0.286898   0.463814  -0.482810
   30  CR  2 YY   0.159665  -0.003276  -0.167993  -0.159793  -0.074917
   31  CR  2 ZZ   0.058136  -0.002735   0.365559  -0.334782   0.554033
   32  CR  2 XY   0.065411  -0.000189   0.556474   0.652896   0.336151
   33  CR  2 XZ  -0.126082  -0.002215   0.068617   0.292693  -0.450945
   34  CR  2 YZ   0.106858   0.002194   0.675742  -0.423829  -0.528294
   35  CR  2  S   0.023129  -0.007560   0.009246   0.007948  -0.001982
   36  CR  2  X   0.330321   0.004714  -0.210447  -0.263797   0.185224
   37  CR  2  Y   0.539328   0.012605   0.038669   0.054287   0.048942
   38  CR  2  Z  -0.510867   0.005845   0.018286  -0.028855   0.021266

                     36         37         38
                    2.8868     3.3046     4.3751
                     A          A          A   
    1  CR  1  S  -0.001633  -0.000197  -0.000514
    2  CR  1  S   0.005489   0.000439   0.002417
    3  CR  1  X   0.013895  -0.010982  -0.002007
    4  CR  1  Y   0.013397  -0.017261   0.000384
    5  CR  1  Z   0.022054   0.012102  -0.006500
    6  CR  1  S  -0.026856   0.003770  -0.029785
    7  CR  1  X  -0.045940   0.036348   0.006627
    8  CR  1  Y  -0.044079   0.056808  -0.001271
    9  CR  1  Z  -0.073147  -0.040163   0.021631
   10  CR  1 XX  -0.038324  -0.143696   0.010655
   11  CR  1 YY  -0.039130   0.253550   0.006150
   12  CR  1 ZZ   0.102008  -0.119472   0.029093
   13  CR  1 XY   0.153628   0.639835   0.018849
   14  CR  1 XZ  -0.024575  -0.563864  -0.059345
   15  CR  1 YZ   0.019643  -0.118331  -0.029508
   16  CR  1  S   0.047341   0.019715  -0.024379
   17  CR  1  X   0.184878  -0.159800  -0.027326
   18  CR  1  Y   0.175603  -0.229062   0.005410
   19  CR  1  Z   0.304741   0.167770  -0.091589
   20  CR  2  S   0.003098  -0.001357   0.136185
   21  CR  2  S  -0.011278   0.005764  -0.539041
   22  CR  2  X   0.047997  -0.004989   0.002037
   23  CR  2  Y  -0.006313   0.015981  -0.003404
   24  CR  2  Z   0.021280   0.011880  -0.004837
   25  CR  2  S   0.077642  -0.059474   4.748188
   26  CR  2  X  -0.157800   0.016369  -0.006715
   27  CR  2  Y   0.020733  -0.052810   0.011252
   28  CR  2  Z  -0.070577  -0.039416   0.016326
   29  CR  2 XX   0.337383  -0.036543  -2.172162
   30  CR  2 YY  -0.060631   0.040798  -2.176890
   31  CR  2 ZZ  -0.371139   0.082715  -2.192303
   32  CR  2 XY   0.235137  -0.058143  -0.001453
   33  CR  2 XZ  -0.295200   0.031587  -0.020631
   34  CR  2 YZ   0.178402  -0.089029  -0.002257
   35  CR  2  S  -0.041086  -0.028063   0.556850
   36  CR  2  X   0.628630  -0.064647   0.027293
   37  CR  2  Y  -0.082249   0.215322  -0.045772
   38  CR  2  Z   0.297575   0.163842  -0.074180
 ...... END OF RHF CALCULATION ......
 STEP CPU TIME =     1.58 TOTAL CPU TIME =        1.9 (    0.0 MIN)
 TOTAL WALL CLOCK TIME=        9.2 SECONDS, CPU UTILIZATION IS  20.11%

          -----------------
          ENERGY COMPONENTS
          -----------------

         WAVEFUNCTION NORMALIZATION =       1.0000000000

                ONE ELECTRON ENERGY =   -2954.3911869617
                TWO ELECTRON ENERGY =    2903.5901710347
           NUCLEAR REPULSION ENERGY =      50.8010159270
                                      ------------------
                       TOTAL ENERGY =       0.0000000000

 ELECTRON-ELECTRON POTENTIAL ENERGY =    2903.5901710347
  NUCLEUS-ELECTRON POTENTIAL ENERGY =   -5010.2411359578
   NUCLEUS-NUCLEUS POTENTIAL ENERGY =      50.8010159270
                                      ------------------
             TOTAL POTENTIAL ENERGY =   -2055.8499489961
               TOTAL KINETIC ENERGY =    2055.8499489961
                 VIRIAL RATIO (V/T) =       1.0000000000

  ...... PI ENERGY ANALYSIS ......

 ENERGY ANALYSIS:
            FOCK ENERGY=  -1275.9953894980
          BARE H ENERGY=  -2954.3911869617
     ELECTRONIC ENERGY =  -2115.1932882299
         KINETIC ENERGY=   2055.8499489961
          N-N REPULSION=     50.8010159270
           TOTAL ENERGY=  -2064.3922723028
        SIGMA PART(1+2)=  -1604.6911062510
               (K,V1,2)=   1615.5604834824  -3741.1690466704    520.9174569370
           PI PART(1+2)=   -510.1826772580
               (K,V1,2)=    440.2894655137  -1269.0720892874    318.5999465157
  SIGMA SKELETON, ERROR=  -1553.8900903239      0.0000000000
             MIXED PART=-3.19505E-01 4.14032E-17-5.35089E-17-3.19505E-01
 ...... END OF PI ENERGY ANALYSIS ......

          ---------------------------------------
          MULLIKEN AND LOWDIN POPULATION ANALYSES
          ---------------------------------------

     MULLIKEN ATOMIC POPULATION IN EACH MOLECULAR ORBITAL

                      1          2          3          4          5

                  2.000000   2.000000   2.000000   2.000000   2.000000

    1             2.000000   0.000000   2.000000   0.000000   2.000000
    2             0.000000   2.000000   0.000000   2.000000   0.000000

                      6          7          8          9         10

                  2.000000   2.000000   2.000000   2.000000   2.000000

    1             2.000000   2.000000   0.000003   0.000003   0.000003
    2             0.000000   0.000000   1.999997   1.999997   1.999997

                     11         12         13         14         15

                  2.000000   2.000000   2.000000   2.000000   2.000000

    1             1.999916   1.998734   1.999200   1.997994   0.005382
    2             0.000084   0.001266   0.000800   0.002006   1.994618

                     16         17         18         19         20

                  2.000000   2.000000   2.000000   2.000000   2.000000

    1             1.910180   0.507258   0.857834   0.059341   0.249385
    2             0.089820   1.492742   1.142166   1.940659   1.750615

                     21         22         23         24         25

                  2.000000   2.000000   2.000000   2.000000   2.000000

    1             0.213442   0.247492   0.698850   1.216623   1.040680
    2             1.786558   1.752508   1.301150   0.783377   0.959320

               ----- POPULATIONS IN EACH AO -----
                             MULLIKEN      LOWDIN
              1  CR  1  S     1.99921     1.99920
              2  CR  1  S     1.96121     1.98651
              3  CR  1  X     1.99938     1.99814
              4  CR  1  Y     1.99953     1.99863
              5  CR  1  Z     1.99970     1.99910
              6  CR  1  S     2.51335     1.13123
              7  CR  1  X     1.97732     1.96002
              8  CR  1  Y     1.98255     1.97071
              9  CR  1  Z     1.98961     1.98098
             10  CR  1 XX     1.13460     1.57390
             11  CR  1 YY     0.74412     1.18691
             12  CR  1 ZZ     0.70737     1.16119
             13  CR  1 XY     0.12234     0.12234
             14  CR  1 XZ     0.00358     0.00358
             15  CR  1 YZ     0.23184     0.23184
             16  CR  1  S     1.91863     1.93945
             17  CR  1  X     0.03438     0.05293
             18  CR  1  Y     0.65364     0.66637
             19  CR  1  Z     1.02996     1.03930
             20  CR  2  S     1.99921     1.99920
             21  CR  2  S     1.96122     1.98651
             22  CR  2  X     1.99953     1.99862
             23  CR  2  Y     1.99938     1.99814
             24  CR  2  Z     1.99969     1.99910
             25  CR  2  S     2.51324     1.13133
             26  CR  2  X     1.98240     1.97056
             27  CR  2  Y     1.97732     1.96001
             28  CR  2  Z     1.98958     1.98088
             29  CR  2 XX     0.27885     0.72543
             30  CR  2 YY     1.13999     1.57962
             31  CR  2 ZZ     0.25099     0.70035
             32  CR  2 XY     0.10010     0.10010
             33  CR  2 XZ     1.15588     1.15588
             34  CR  2 YZ     0.01930     0.01930
             35  CR  2  S     1.92217     1.94311
             36  CR  2  X     0.65319     0.66593
             37  CR  2  Y     0.03290     0.05146
             38  CR  2  Z     1.02273     1.03212

          ----- MULLIKEN ATOMIC OVERLAP POPULATIONS -----
          (OFF-DIAGONAL ELEMENTS NEED TO BE MULTIPLIED BY 2)

             1           2

    1   24.9530951
    2    0.0492244  24.9484560

          TOTAL MULLIKEN AND LOWDIN ATOMIC POPULATIONS
       ATOM         MULL.POP.    CHARGE          LOW.POP.     CHARGE
    1 CR           25.002320   -1.002320        25.002343   -1.002343
    2 CR           24.997680   -0.997680        24.997657   -0.997657

          -------------------------------
          BOND ORDER AND VALENCE ANALYSIS     BOND ORDER THRESHOLD=0.050
          -------------------------------

                   BOND                       BOND                       BOND
  ATOM PAIR DIST  ORDER      ATOM PAIR DIST  ORDER      ATOM PAIR DIST  ORDER
    1   2  6.000  1.000

                       TOTAL       BONDED        FREE
      ATOM            VALENCE     VALENCE     VALENCE
    1 CR                1.000       1.000       0.000
    2 CR                1.000       1.000       0.000

          ---------------------
          ELECTROSTATIC MOMENTS
          ---------------------

 POINT   1           X           Y           Z (BOHR)    CHARGE
                 0.000000    0.000000    5.669178       -2.00 (A.U.)
         DX          DY          DZ         /D/  (DEBYE)
     0.030782   -0.064700   -0.083578    0.110085
 ...... END OF PROPERTY EVALUATION ......
 STEP CPU TIME =     0.02 TOTAL CPU TIME =        1.9 (    0.0 MIN)
 TOTAL WALL CLOCK TIME=        9.2 SECONDS, CPU UTILIZATION IS  20.26%
 100000 WORDS OF DYNAMIC MEMORY USED
 EXECUTION OF GAMESS TERMINATED NORMALLY Tue Feb 17 16:59:50 2004

DATA SERVER STATS: TOTAL DISTRIBUTED MEMORY USED (MEMDDI)=       0 MWORDS.
FIRST DATA SERVER'S MAXIMUM MEMORY=             0 WORDS, CPU=     0.0 SECONDS.

ddikick: all processes have ended gracefully. 
----- accounting info -----
Tue Feb 17 16:59:53 BRT 2004
Files used on the master node limes.iqm.unicamp.br were:
-rw-rw-r--    1 lmartine lmartine      694 Feb 17 16:59 /home/lmartinez/hf/gamess/scratch/Cu.F05
-rw-rw-r--    1 lmartine lmartine     352k Feb 17 16:59 /home/lmartinez/hf/gamess/scratch/Cu.F08
-rw-rw-r--    1 lmartine lmartine     317k Feb 17 16:59 /home/lmartinez/hf/gamess/scratch/Cu.F10
-rw-rw-r--    1 lmartine lmartine      24k Feb 17 16:59 /home/lmartinez/hf/gamess/scratch/Cu.dat
0.920u 0.990s 0:13.31 14.3%	0+0k 0+0io 3983pf+0w
