----- GAMESS execution script -----
This job is running on host limes.iqm.unicamp.br at Tue Feb 17 10:00:00 BRT 2004
Available scratch disk space (Kbyte units) at beginning of the job is
Filesystem           1k-blocks      Used Available Use% Mounted on
/dev/hda5             55084224  44406280   7879828  85% /home
Initiating 1 compute processes for job UF4 
Executable gamess.00.x will be run from directory /home/lmartinez/hf/gamess 
Working scratch directory on each host will be /home/lmartinez/hf/gamess/scratch 
Running gamess.00.x on limes.iqm.unicamp.br as compute process 0 
Running gamess.00.x on limes.iqm.unicamp.br as data server 1 
Process initiation completed. 
          ******************************************************
          *         GAMESS VERSION =  3 JUL 2003 (R2)          *
          *             FROM IOWA STATE UNIVERSITY             *
          * M.W.SCHMIDT, K.K.BALDRIDGE, J.A.BOATZ, S.T.ELBERT, *
          *   M.S.GORDON, J.H.JENSEN, S.KOSEKI, N.MATSUNAGA,   *
          *          K.A.NGUYEN, S.J.SU, T.L.WINDUS,           *
          *       TOGETHER WITH M.DUPUIS, J.A.MONTGOMERY       *
          *         J.COMPUT.CHEM.  14, 1347-1363(1993)        *
          ******************* PC-UNIX VERSION ******************

     SINCE 1993, STUDENTS AND POSTDOCS WORKING AT IOWA STATE UNIVERSITY
     AND ALSO IN THEIR VARIOUS JOBS AFTER LEAVING ISU HAVE MADE IMPORTANT
     CONTRIBUTIONS TO THE CODE:
     CHRISTINE AIKENS, ROB BELL, PRADIPTA BANDYOPADHYAY, BRETT BODE,
     GALINA CHABAN, WEI CHEN, CHEOL CHOI, PAUL DAY, DMITRI FEDOROV,
     GRAHAM FLETCHER, MARK FREITAG, KURT GLAESEMANN, GRANT MERRILL,
     MIKE PAK, JIM SHOEMAKER, TETSUYA TAKETSUGU, SIMON WEBB.

     ADDITIONAL CODE HAS BEEN PROVIDED BY COLLABORATORS IN OTHER GROUPS:
     IOWA STATE UNIVERSITY: JOE IVANIC, KLAUS RUEDENBERG
     UNIVERSITY OF TOKYO: KIMIHIKO HIRAO, HARUYUKI NAKANO, TAKAHITO
     NAKAJIMA, TAKAO TSUNEDA, MUNEAKI KAMIYA, SUSUMU YANAGISAWA
     ODENSE UNIVERSITY: FRANK JENSEN
     UNIVERSITY OF IOWA: VISVALDAS KAIRYS, HUI LI
     NATIONAL INST. OF STANDARDS AND TECHNOLOGY: WALT STEVENS, DAVID GARMER
     UNIVERSITY OF PISA: BENEDETTA MENNUCCI, JACOPO TOMASI
     UNIVERSITY OF MEMPHIS: HENRY KURTZ, PRAKASHAN KORAMBATH
     UNIVERSITY OF ALBERTA: MARIUSZ KLOBUKOWSKI
     UNIVERSITY OF NEW ENGLAND: MARK SPACKMAN
     MIE UNIVERSITY: HIROAKI UMEDA
     MICHIGAN STATE UNIVERSITY: KAROL KOWALSKI, PIOTR PIECUCH
     UNIVERSITY OF SILESIA: MONIKA MUSIAL, STANISLAW KUCHARSKI

 EXECUTION OF GAMESS BEGUN Tue Feb 17 10:00:01 2004

            ECHO OF THE FIRST FEW INPUT CARDS -
 INPUT CARD>! Tetrafluoreto de Uranio                                                       
 INPUT CARD> $CONTRL                                                                        
 INPUT CARD>        SCFTYP=RHF                                                              
 INPUT CARD>        RUNTYP=ENERGY                                                           
 INPUT CARD>        COORD=UNIQUE                                                            
 INPUT CARD>        NZVAR=0                                                                 
 INPUT CARD>        MAXIT=100                                                               
 INPUT CARD> $END                                                                           
 INPUT CARD> $SYSTEM                                                                        
 INPUT CARD>        TIMLIM=2                                                                
 INPUT CARD>        MEMORY=100000                                                           
 INPUT CARD> $END                                                                           
 INPUT CARD> $STATPT                                                                        
 INPUT CARD>        OPTTOL=1.0E-5                                                           
 INPUT CARD> $END                                                                           
 INPUT CARD> $BASIS                                                                         
 INPUT CARD>        GBASIS=STO                                                              
 INPUT CARD>        NGAUSS=3                                                                
 INPUT CARD> $END                                                                           
 INPUT CARD> $GUESS                                                                         
 INPUT CARD>        GUESS=HUCKEL                                                            
 INPUT CARD> $END                                                                           
 INPUT CARD> $SCF                                                                           
 INPUT CARD>        EXTRAP=.FALSE.                                                          
 INPUT CARD>        DAMP=.FALSE.                                                            
 INPUT CARD>        SHIFT=.FALSE.                                                           
 INPUT CARD>        RSTRCT=.FALSE.                                                          
 INPUT CARD>        DIIS=.FALSE.                                                            
 INPUT CARD>        SOSCF=.TRUE.                                                            
 INPUT CARD>        DEM=.FALSE.                                                             
 INPUT CARD>        ETHRSH = 10.d0                                                          
 INPUT CARD>        SOGTOL = 100.d0                                                         
 INPUT CARD> $END                                                                           
 INPUT CARD> $DATA                                                                          
 INPUT CARD>UF4 - Challenging case                                                          
 INPUT CARD>C1                                                                              
 INPUT CARD> F    9.0   0.000000     0.000000     0.000000                                  
 INPUT CARD> Te  52.0   0.000000     0.000000     2.567600                                  
 INPUT CARD> F    9.0   2.420756     0.000000     3.423467                                  
 INPUT CARD> F    9.0  -1.210378     2.096437     3.423467                                  
 INPUT CARD> F    9.0  -1.210378    -2.096437     3.423467                                  
 INPUT CARD>$END                                                                            

 ..... DONE SETTING UP THE RUN .....
     100000 WORDS OF MEMORY AVAILABLE

     BASIS OPTIONS
     -------------
     GBASIS=STO          IGAUSS=       3      POLAR=NONE    
     NDFUNC=       0     NFFUNC=       0     DIFFSP=       F
     NPFUNC=       0      DIFFS=       F


     RUN TITLE
     ---------
 UF4 - Challenging case                                                          

 THE POINT GROUP OF THE MOLECULE IS C1      
 THE ORDER OF THE PRINCIPAL AXIS IS     0

 ATOM      ATOMIC                      COORDINATES (BOHR)
           CHARGE         X                   Y                   Z
 F           9.0     0.0000000000        0.0000000000        0.0000000000
 TE         52.0     0.0000000000        0.0000000000        4.8520604461
 F           9.0     4.5745655231        0.0000000000        6.4694145580
 F           9.0    -2.2872827616        3.9616914805        6.4694145580
 F           9.0    -2.2872827616       -3.9616914805        6.4694145580

          INTERNUCLEAR DISTANCES (ANGS.)
          ------------------------------

                    F              TE             F              F         

  1  F               0.0000000      2.5676000 *    4.1928732      4.1928736    
  2  TE              2.5676000 *    0.0000000      2.5675996 *    2.5676003 *  
  3  F               4.1928732      2.5675996 *    0.0000000      4.1928728    
  4  F               4.1928736      2.5676003 *    4.1928728      0.0000000    
  5  F               4.1928736      2.5676003 *    4.1928728      4.1928740    

                    F         

  1  F               4.1928736    
  2  TE              2.5676003 *  
  3  F               4.1928728    
  4  F               4.1928740    
  5  F               0.0000000    

  * ... LESS THAN  3.000


     ATOMIC BASIS SET
     ----------------
 THE CONTRACTED PRIMITIVE FUNCTIONS HAVE BEEN UNNORMALIZED
 THE CONTRACTED BASIS FUNCTIONS ARE NOW NORMALIZED TO UNITY

 SHELL TYPE PRIMITIVE    EXPONENT          CONTRACTION COEFFICIENTS

 F         

   1   S    1           166.6791340      0.154328967295
   1   S    2            30.3608123      0.535328142282
   1   S    3             8.2168207      0.444634542185

   2   L    4             6.4648032     -0.099967229187      0.155916274999
   2   L    5             1.5022812      0.399512826089      0.607683718598
   2   L    6             0.4885885      0.700115468880      0.391957393099

 TE        

   3   S    7          5810.0615911      0.154328967295
   3   S    8          1058.3099716      0.535328142282
   3   S    9           286.4199797      0.444634542185

   4   L   10           512.7541920     -0.099967229187      0.155916274999
   4   L   11           119.1530471      0.399512826089      0.607683718598
   4   L   12            38.7522690      0.700115468880      0.391957393099

   5   L   13            69.8790771     -0.219620369005      0.010587604289
   5   L   14            19.4960851      0.225595433605      0.595167005266
   5   L   15             7.6306356      0.900398426019      0.462001011973

   6   D   16            75.6761827      0.168659606013
   6   D   17            23.7283791      0.584798481745
   6   D   18             9.2427884      0.405677952331

   7   L   19             7.0806438     -0.308844121382     -0.121546859998
   7   L   20             2.6132029      0.019606411652      0.571522760389
   7   L   21             1.1540179      1.131034441567      0.549894947089

   8   D   22             5.1073105      0.230855271810
   8   D   23             2.3100458      0.604240917727
   8   D   24             1.1347777      0.259576892612

   9   L   25             0.7012694     -0.384262501548     -0.348169412435
   9   L   26             0.3775915     -0.197256230789      0.629032745141
   9   L   27             0.1667886      1.375494636185      0.666283789268

 F         

  10   S   28           166.6791340      0.154328967295
  10   S   29            30.3608123      0.535328142282
  10   S   30             8.2168207      0.444634542185

  11   L   31             6.4648032     -0.099967229187      0.155916274999
  11   L   32             1.5022812      0.399512826089      0.607683718598
  11   L   33             0.4885885      0.700115468880      0.391957393099

 F         

  12   S   34           166.6791340      0.154328967295
  12   S   35            30.3608123      0.535328142282
  12   S   36             8.2168207      0.444634542185

  13   L   37             6.4648032     -0.099967229187      0.155916274999
  13   L   38             1.5022812      0.399512826089      0.607683718598
  13   L   39             0.4885885      0.700115468880      0.391957393099

 F         

  14   S   40           166.6791340      0.154328967295
  14   S   41            30.3608123      0.535328142282
  14   S   42             8.2168207      0.444634542185

  15   L   43             6.4648032     -0.099967229187      0.155916274999
  15   L   44             1.5022812      0.399512826089      0.607683718598
  15   L   45             0.4885885      0.700115468880      0.391957393099

 TOTAL NUMBER OF BASIS SET SHELLS             =   15
 NUMBER OF CARTESIAN GAUSSIAN BASIS FUNCTIONS =   49
 NUMBER OF ELECTRONS                          =   88
 CHARGE OF MOLECULE                           =    0
 SPIN MULTIPLICITY                            =    1
 NUMBER OF OCCUPIED ORBITALS (ALPHA)          =   44
 NUMBER OF OCCUPIED ORBITALS (BETA )          =   44
 TOTAL NUMBER OF ATOMS                        =    5
 THE NUCLEAR REPULSION ENERGY IS      447.1529105416

     $CONTRL OPTIONS
     ---------------
 SCFTYP=RHF          RUNTYP=ENERGY       EXETYP=RUN     
 MPLEVL=       0     CITYP =NONE         CCTYP =NONE    
 MULT  =       1     ICHARG=       0     NZVAR =       0     COORD =UNIQUE  
 ECP   =NONE         RELWFN=NONE         LOCAL =NONE    
 ISPHER=      -1     NOSYM =       0     MAXIT =     100     UNITS =ANGS    
 PLTORB=       F     MOLPLT=       F     AIMPAC=       F     FRIEND=        
 NPRINT=       7     IREST =       0     GEOM  =INPUT   
 NORMF =       0     NORMP =       0     ITOL  =      20     ICUT  =       9
 INTTYP=POPLE        QMTTOL= 1.0E-06

     $SYSTEM OPTIONS
     ---------------
  REPLICATED MEMORY=      100000 WORDS (ON EVERY NODE).
 DISTRIBUTED MEMDDI=           0 MILLION WORDS IN AGGREGATE,
 MEMDDI DISTRIBUTED OVER   1 PROCESSORS IS           0 WORDS/PROCESSOR.
 TOTAL MEMORY REQUESTED ON EACH PROCESSOR=      100000 WORDS.
 TIMLIM=       120.0 SECONDS.
 COREFL=F     KDIAG= 0

          ----------------
          PROPERTIES INPUT
          ----------------

     MOMENTS            FIELD           POTENTIAL          DENSITY
 IEMOM =       1   IEFLD =       0   IEPOT =       0   IEDEN =       0
 WHERE =COMASS     WHERE =NUCLEI     WHERE =NUCLEI     WHERE =NUCLEI  
 OUTPUT=BOTH       OUTPUT=BOTH       OUTPUT=BOTH       OUTPUT=BOTH    
 IEMINT=       0   IEFINT=       0                     IEDINT=       0
                                                       MORB  =       0
          SOSCF IN EFFECT

     -------------------------------
     INTEGRAL TRANSFORMATION OPTIONS
     -------------------------------
     NWORD  =       0     CUTOFF = 1.0E-09
     MPTRAN =       0     DIRTRF =       F
     AOINTS =DUP     

          ----------------------
          INTEGRAL INPUT OPTIONS
          ----------------------
 NOPK  =       1 NORDER=       0 SCHWRZ=       F

     ------------------------------------------
     THE POINT GROUP IS C1 , NAXIS= 0, ORDER= 1
     ------------------------------------------

     DIMENSIONS OF THE SYMMETRY SUBSPACES ARE
 A   =   49

 ..... DONE SETTING UP THE RUN .....
 STEP CPU TIME =     0.03 TOTAL CPU TIME =        0.0 (    0.0 MIN)
 TOTAL WALL CLOCK TIME=        0.2 SECONDS, CPU UTILIZATION IS  15.79%

          ********************
          1 ELECTRON INTEGRALS
          ********************
 ...... END OF ONE-ELECTRON INTEGRALS ......
 STEP CPU TIME =     0.00 TOTAL CPU TIME =        0.0 (    0.0 MIN)
 TOTAL WALL CLOCK TIME=        0.2 SECONDS, CPU UTILIZATION IS  15.79%

          -------------
          GUESS OPTIONS
          -------------
          GUESS =HUCKEL            NORB  =       0          NORDER=       0
          MIX   =       F          PRTMO =       F          PUNMO =       F
          TOLZ  = 1.0E-08          TOLE  = 1.0E-05
          SYMDEN=       F          PURIFY=       F

 INITIAL GUESS ORBITALS GENERATED BY HUCKEL   ROUTINE.
 HUCKEL GUESS REQUIRES     30765 WORDS.

 SYMMETRIES FOR INITIAL GUESS ORBITALS FOLLOW.   BOTH SET(S).
    44 ORBITALS ARE OCCUPIED (   27 CORE ORBITALS).
    28=A       29=A       30=A       31=A       32=A       33=A       34=A   
    35=A       36=A       37=A       38=A       39=A       40=A       41=A   
    42=A       43=A       44=A       45=A       46=A       47=A       48=A   
    49=A   
 ...... END OF INITIAL ORBITAL SELECTION ......
 STEP CPU TIME =     0.02 TOTAL CPU TIME =        0.0 (    0.0 MIN)
 TOTAL WALL CLOCK TIME=        0.3 SECONDS, CPU UTILIZATION IS  15.62%

          --------------------
          2 ELECTRON INTEGRALS
          --------------------

 THE -PK- OPTION IS OFF, THE INTEGRALS ARE NOT IN SUPERMATRIX FORM.
 STORING   15000 INTEGRALS/RECORD ON DISK, USING 12 BYTES/INTEGRAL.
 TWO ELECTRON INTEGRAL EVALUATION REQUIRES   60816 WORDS OF MEMORY.
 II,JST,KST,LST =  1  1  1  1 NREC =         1 INTLOC =    1
 II,JST,KST,LST =  2  1  1  1 NREC =         1 INTLOC =    2
 II,JST,KST,LST =  3  1  1  1 NREC =         1 INTLOC =   34
 II,JST,KST,LST =  4  1  1  1 NREC =         1 INTLOC =   59
 II,JST,KST,LST =  5  1  1  1 NREC =         1 INTLOC =  305
 II,JST,KST,LST =  6  1  1  1 NREC =         1 INTLOC = 1078
 II,JST,KST,LST =  7  1  1  1 NREC =         1 INTLOC = 3956
 II,JST,KST,LST =  8  1  1  1 NREC =         1 INTLOC = 8030
 II,JST,KST,LST =  9  1  1  1 NREC =         2 INTLOC = 3609
 II,JST,KST,LST = 10  1  1  1 NREC =         3 INTLOC =  609
 II,JST,KST,LST = 11  1  1  1 NREC =         3 INTLOC = 2047
 II,JST,KST,LST = 12  1  1  1 NREC =         5 INTLOC = 7626
 II,JST,KST,LST = 13  1  1  1 NREC =         5 INTLOC =10692
 II,JST,KST,LST = 14  1  1  1 NREC =        10 INTLOC =13538
 II,JST,KST,LST = 15  1  1  1 NREC =        11 INTLOC = 2179
 TOTAL NUMBER OF NONZERO TWO-ELECTRON INTEGRALS =              241762
         17 INTEGRAL RECORDS WERE STORED ON DISK FILE  8.
  ...... END OF TWO-ELECTRON INTEGRALS .....
 STEP CPU TIME =     0.89 TOTAL CPU TIME =        0.9 (    0.0 MIN)
 TOTAL WALL CLOCK TIME=        4.3 SECONDS, CPU UTILIZATION IS  21.71%

          --------------------------
                 RHF SCF CALCULATION
          --------------------------

     NUCLEAR ENERGY =       447.1529105416
     MAXIT =  100     NPUNCH=    2
     EXTRAP=F  DAMP=F  SHIFT=F  RSTRCT=F  DIIS=F  DEM=F  SOSCF=T
     DENSITY MATRIX CONV=  1.00E-05
     SOSCF WILL OPTIMIZE     220 ORBITAL ROTATIONS, SOGTOL= 100.000
     MEMORY REQUIRED FOR RHF STEP=     48373 WORDS.

 ITER EX DEM    TOTAL ENERGY       E CHANGE  DENSITY CHANGE     ORB. GRAD
   1  0  0    -6938.271160852 -6938.271160852  21.625620001   0.000000000
          ---------------START SECOND ORDER SCF---------------
   2  1  0    -6941.935241976    -3.664081125   1.169230342   0.167816862
   3  2  0    -6941.893224895     0.042017082   0.726597391   0.150134208
   4  3  0    -6942.112732012    -0.219507117   0.844182606   0.151080184
   5  4  0    -6942.192145511    -0.079413499   0.217391997   0.080495775
   6  5  0    -6942.338605816    -0.146460305   0.088898955   0.009680974
   7  6  0    -6942.341155132    -0.002549316   0.008467627   0.002331654
   8  7  0    -6942.341199701    -0.000044569   0.006839807   0.000568831
   9  8  0    -6942.341174404     0.000025297   0.005072345   0.001410596
  10  9  0    -6942.341202779    -0.000028375   0.000268850   0.000081536
  11 10  0    -6942.341202834    -0.000000055   0.000293258   0.000024337
  12 11  0    -6942.341202815     0.000000019   0.000290913   0.000047915
  13 12  0    -6942.341202831    -0.000000016   0.000316967   0.000036687
  14 13  0    -6942.341202807     0.000000024   0.000207461   0.000034332
  15 14  0    -6942.341202856    -0.000000050   0.000022306   0.000005735
  16 15  0    -6942.341202856     0.000000000   0.000020664   0.000003806
  17 16  0    -6942.341202857     0.000000000   0.000009613   0.000002835
  18 17  0    -6942.341202857     0.000000000   0.000016664   0.000000940

          ----------------
          ENERGY CONVERGED
          ----------------
     TIME TO FORM FOCK OPERATORS=       0.4 SECONDS (       0.0 SEC/ITER)
     TIME TO SOLVE SCF EQUATIONS=       0.0 SECONDS (       0.0 SEC/ITER)

 FINAL RHF ENERGY IS    -6942.3412028568 AFTER  18 ITERATIONS

          ------------
          EIGENVECTORS
          ------------

                      1          2          3          4          5
                -1119.2725  -170.3399  -160.8462  -160.8462  -160.8462
                     A          A          A          A          A   
    1  F   1  S   0.000001  -0.000022   0.000007  -0.000003   0.000011
    2  F   1  S  -0.000004   0.000116  -0.000043   0.000018  -0.000065
    3  F   1  X   0.000000   0.000000   0.000010   0.000009  -0.000004
    4  F   1  Y   0.000000   0.000000  -0.000006   0.000011   0.000007
    5  F   1  Z  -0.000004   0.000133  -0.000041   0.000017  -0.000063
    6  TE  2  S   0.996638   0.426600   0.000000   0.000000   0.000000
    7  TE  2  S   0.010100  -1.036965   0.000000   0.000000   0.000000
    8  TE  2  X   0.000000   0.000000   0.735754   0.604628  -0.312665
    9  TE  2  Y   0.000000   0.000000  -0.422250   0.766529   0.488678
   10  TE  2  Z   0.000000   0.000000   0.533891  -0.226995   0.817375
   11  TE  2  S  -0.080291   2.021281   0.000000   0.000000   0.000000
   12  TE  2  X   0.000000   0.000000  -0.003717  -0.003054   0.001579
   13  TE  2  Y   0.000000   0.000000   0.002133  -0.003872  -0.002469
   14  TE  2  Z   0.000000   0.000000  -0.002697   0.001147  -0.004129
   15  TE  2 XX   0.035763  -0.948557   0.000000   0.000000   0.000000
   16  TE  2 YY   0.035763  -0.948557   0.000000   0.000000   0.000000
   17  TE  2 ZZ   0.035763  -0.948557   0.000000   0.000000   0.000000
   18  TE  2 XY   0.000000   0.000000   0.000000   0.000000   0.000000
   19  TE  2 XZ   0.000000   0.000000   0.000000   0.000000   0.000000
   20  TE  2 YZ   0.000000   0.000000   0.000000   0.000000   0.000000
   21  TE  2  S   0.004471   0.534279   0.000000   0.000000   0.000000
   22  TE  2  X   0.000000   0.000000   0.003166   0.002602  -0.001345
   23  TE  2  Y   0.000000   0.000000  -0.001817   0.003299   0.002103
   24  TE  2  Z   0.000000   0.000000   0.002297  -0.000977   0.003517
   25  TE  2 XX  -0.002131  -0.227863   0.000000   0.000000   0.000000
   26  TE  2 YY  -0.002131  -0.227863   0.000000   0.000000   0.000000
   27  TE  2 ZZ  -0.002131  -0.227863   0.000000   0.000000   0.000000
   28  TE  2 XY   0.000000   0.000000   0.000000   0.000000   0.000000
   29  TE  2 XZ   0.000000   0.000000   0.000000   0.000000   0.000000
   30  TE  2 YZ   0.000000   0.000000   0.000000   0.000000   0.000000
   31  TE  2  S   0.000084  -0.002033   0.000000   0.000000   0.000000
   32  TE  2  X   0.000000   0.000000  -0.000709  -0.000583   0.000301
   33  TE  2  Y   0.000000   0.000000   0.000407  -0.000739  -0.000471
   34  TE  2  Z   0.000000   0.000000  -0.000515   0.000219  -0.000788
   35  F   3  S   0.000001  -0.000022  -0.000012  -0.000007   0.000000
   36  F   3  S  -0.000004   0.000116   0.000070   0.000040  -0.000002
   37  F   3  X   0.000004  -0.000125  -0.000064  -0.000034  -0.000002
   38  F   3  Y   0.000000   0.000000  -0.000006   0.000011   0.000007
   39  F   3  Z   0.000001  -0.000044  -0.000019  -0.000018   0.000012
   40  F   4  S   0.000001  -0.000022   0.000007  -0.000004  -0.000011
   41  F   4  S  -0.000004   0.000116  -0.000041   0.000021   0.000066
   42  F   4  X  -0.000002   0.000063  -0.000012   0.000020   0.000031
   43  F   4  Y   0.000003  -0.000109   0.000032  -0.000009  -0.000054
   44  F   4  Z   0.000001  -0.000044   0.000023  -0.000011  -0.000013
   45  F   5  S   0.000001  -0.000022  -0.000002   0.000013   0.000000
   46  F   5  S  -0.000004   0.000116   0.000014  -0.000079   0.000002
   47  F   5  X  -0.000002   0.000063   0.000018  -0.000034  -0.000004
   48  F   5  Y  -0.000003   0.000109   0.000007  -0.000062   0.000008
   49  F   5  Z   0.000001  -0.000044   0.000002   0.000027   0.000011

                      6          7          8          9         10
                  -33.9534   -30.6676   -30.6676   -30.6676   -25.8829
                     A          A          A          A          A   
    1  F   1  S  -0.000042   0.000050   0.000059   0.000028   0.553207
    2  F   1  S   0.000278  -0.000456  -0.000538  -0.000256   0.011116
    3  F   1  X   0.000000   0.000103  -0.000068  -0.000040   0.000000
    4  F   1  Y   0.000000   0.000006  -0.000060   0.000115  -0.000003
    5  F   1  Z   0.000321  -0.000426  -0.000504  -0.000240   0.000197
    6  TE  2  S   0.228401   0.000000   0.000000   0.000000  -0.000013
    7  TE  2  S  -0.704845   0.000000   0.000000   0.000000  -0.000049
    8  TE  2  X   0.000000  -0.444490   0.293623   0.173483   0.000001
    9  TE  2  Y   0.000000  -0.024154   0.257171  -0.497154  -0.000012
   10  TE  2  Z   0.000000  -0.340187  -0.401909  -0.191374  -0.000006
   11  TE  2  S   2.642229   0.000000   0.000000   0.000000   0.000236
   12  TE  2  X   0.000000   0.893986  -0.590553  -0.348920  -0.000002
   13  TE  2  Y   0.000000   0.048581  -0.517239   0.999907   0.000029
   14  TE  2  Z   0.000000   0.684206   0.808344   0.384904   0.000014
   15  TE  2 XX  -0.681896  -0.000001   0.000000   0.000000  -0.000184
   16  TE  2 YY  -0.681896   0.000000  -0.000001   0.000000  -0.000184
   17  TE  2 ZZ  -0.681896   0.000001   0.000001   0.000000  -0.000184
   18  TE  2 XY   0.000000   0.000000   0.000000   0.000001   0.000000
   19  TE  2 XZ   0.000000   0.000000   0.000000   0.000000   0.000000
   20  TE  2 YZ   0.000000   0.000000   0.000000   0.000000   0.000000
   21  TE  2  S   1.970443   0.000000   0.000000   0.000000  -0.034571
   22  TE  2  X   0.000000   0.046488  -0.030709  -0.018144   0.000004
   23  TE  2  Y   0.000000   0.002526  -0.026897   0.051996  -0.000051
   24  TE  2  Z   0.000000   0.035579   0.042034   0.020015  -0.000024
   25  TE  2 XX  -0.839764  -0.000003   0.000000   0.000000   0.015652
   26  TE  2 YY  -0.839764   0.000001  -0.000003  -0.000002   0.015652
   27  TE  2 ZZ  -0.839764   0.000002   0.000002   0.000001   0.015651
   28  TE  2 XY   0.000000   0.000000  -0.000001   0.000003  -0.000001
   29  TE  2 XZ   0.000000  -0.000002   0.000001   0.000001   0.000000
   30  TE  2 YZ   0.000000   0.000000   0.000001  -0.000002   0.000001
   31  TE  2  S  -0.004565   0.000000   0.000000   0.000000  -0.001500
   32  TE  2  X   0.000000  -0.007249   0.004788   0.002829  -0.000013
   33  TE  2  Y   0.000000  -0.000394   0.004194  -0.008107   0.000184
   34  TE  2  Z   0.000000  -0.005548  -0.006554  -0.003121   0.000086
   35  F   3  S  -0.000042  -0.000078   0.000021   0.000015   0.478199
   36  F   3  S   0.000278   0.000713  -0.000191  -0.000134   0.009611
   37  F   3  X  -0.000303  -0.000643   0.000132   0.000100  -0.000164
   38  F   3  Y   0.000000   0.000006  -0.000060   0.000115  -0.000003
   39  F   3  Z  -0.000107  -0.000185   0.000164   0.000094  -0.000059
   40  F   4  S  -0.000042   0.000011  -0.000009  -0.000081   0.354435
   41  F   4  S   0.000278  -0.000102   0.000084   0.000739   0.007128
   42  F   4  X   0.000151   0.000049  -0.000024   0.000346   0.000063
   43  F   4  Y  -0.000262   0.000098  -0.000135  -0.000554  -0.000111
   44  F   4  Z  -0.000107   0.000117   0.000062  -0.000229  -0.000046
   45  F   5  S  -0.000042   0.000017  -0.000071   0.000038   0.574293
   46  F   5  S   0.000278  -0.000155   0.000646  -0.000349   0.011539
   47  F   5  X   0.000151   0.000022   0.000270  -0.000222   0.000097
   48  F   5  Y   0.000262  -0.000135   0.000525  -0.000201   0.000165
   49  F   5  Z  -0.000107   0.000136  -0.000146   0.000173  -0.000070

                     11         12         13         14         15
                  -25.8829   -25.8829   -25.8829   -21.8343   -21.8343
                     A          A          A          A          A   
    1  F   1  S  -0.676288  -0.440238  -0.181512   0.000000   0.000000
    2  F   1  S  -0.013568  -0.008831  -0.003639   0.000000   0.000000
    3  F   1  X  -0.000006   0.000013  -0.000009   0.000001   0.000004
    4  F   1  Y  -0.000009   0.000005   0.000013   0.000004  -0.000001
    5  F   1  Z  -0.000211  -0.000135  -0.000053   0.000000   0.000000
    6  TE  2  S   0.000000  -0.000001  -0.000002   0.000000   0.000000
    7  TE  2  S   0.000001  -0.000004  -0.000008   0.000000   0.000000
    8  TE  2  X  -0.000028   0.000061  -0.000042   0.000000   0.000000
    9  TE  2  Y  -0.000042   0.000024   0.000062   0.000000   0.000000
   10  TE  2  Z   0.000061   0.000044   0.000024   0.000000   0.000000
   11  TE  2  S  -0.000005   0.000019   0.000036   0.000000   0.000000
   12  TE  2  X   0.000065  -0.000144   0.000100   0.000000   0.000000
   13  TE  2  Y   0.000099  -0.000056  -0.000145   0.000000   0.000000
   14  TE  2  Z  -0.000144  -0.000104  -0.000056   0.000000   0.000000
   15  TE  2 XX   0.000004  -0.000015  -0.000028  -0.075752  -0.481515
   16  TE  2 YY   0.000004  -0.000015  -0.000029   0.075657   0.481029
   17  TE  2 ZZ   0.000004  -0.000015  -0.000028   0.000095   0.000486
   18  TE  2 XY   0.000000   0.000000   0.000000   0.556044  -0.087445
   19  TE  2 XZ   0.000000   0.000000   0.000000   0.123619   0.786025
   20  TE  2 YZ   0.000000   0.000000   0.000000   0.785799  -0.123599
   21  TE  2  S   0.000803  -0.002815  -0.005318   0.000000   0.000000
   22  TE  2  X  -0.000114   0.000252  -0.000175   0.000000   0.000000
   23  TE  2  Y  -0.000174   0.000098   0.000254   0.000000   0.000000
   24  TE  2  Z   0.000253   0.000182   0.000098   0.000000   0.000000
   25  TE  2 XX  -0.000364   0.001269   0.002409  -0.005527  -0.035133
   26  TE  2 YY  -0.000368   0.001276   0.002404   0.005520   0.035097
   27  TE  2 ZZ  -0.000358   0.001278   0.002410   0.000007   0.000035
   28  TE  2 XY  -0.000003   0.000002   0.000004   0.040571  -0.006380
   29  TE  2 XZ   0.000001  -0.000003   0.000002   0.009020   0.057351
   30  TE  2 YZ   0.000002  -0.000001  -0.000003   0.057334  -0.009018
   31  TE  2  S   0.000035  -0.000122  -0.000231   0.000000   0.000000
   32  TE  2  X   0.000411  -0.000908   0.000630   0.000000   0.000000
   33  TE  2  Y   0.000627  -0.000354  -0.000916   0.000000   0.000000
   34  TE  2  Z  -0.000910  -0.000657  -0.000352   0.000000   0.000000
   35  F   3  S  -0.073035   0.825635  -0.272910   0.000000   0.000000
   36  F   3  S  -0.001466   0.016565  -0.005473   0.000000   0.000000
   37  F   3  X   0.000017  -0.000246   0.000074   0.000000   0.000001
   38  F   3  Y  -0.000009   0.000005   0.000013  -0.000004   0.000001
   39  F   3  Z   0.000021  -0.000082   0.000034  -0.000001  -0.000004
   40  F   4  S  -0.022130   0.098286   0.924330   0.000000   0.000000
   41  F   4  S  -0.000444   0.001973   0.018547   0.000000   0.000000
   42  F   4  X  -0.000009   0.000029   0.000136  -0.000003  -0.000002
   43  F   4  Y  -0.000002  -0.000023  -0.000239   0.000000  -0.000002
   44  F   4  Z   0.000015  -0.000002  -0.000098  -0.000003   0.000002
   45  F   5  S   0.725930  -0.324070  -0.168378   0.000000   0.000000
   46  F   5  S   0.014563  -0.006500  -0.003375   0.000000   0.000000
   47  F   5  X   0.000107  -0.000037  -0.000034   0.000002  -0.000003
   48  F   5  Y   0.000187  -0.000081  -0.000031   0.000000   0.000002
   49  F   5  Z  -0.000067   0.000044   0.000023   0.000004   0.000001

                     16         17         18         19         20
                  -21.8343   -21.8343   -21.8343    -6.1254    -4.7414
                     A          A          A          A          A   
    1  F   1  S  -0.000001   0.000007   0.000000   0.000235  -0.000017
    2  F   1  S   0.000001  -0.000020   0.000000  -0.001190   0.000119
    3  F   1  X   0.000003   0.000000   0.000000   0.000000  -0.000117
    4  F   1  Y   0.000000   0.000000  -0.000003   0.000000  -0.000057
    5  F   1  Z   0.000003  -0.000044   0.000000  -0.001213   0.000068
    6  TE  2  S   0.000000   0.000000   0.000000   0.087679   0.000000
    7  TE  2  S   0.000000   0.000000   0.000000  -0.282125   0.000000
    8  TE  2  X  -0.000002   0.000000   0.000000   0.000000   0.181804
    9  TE  2  Y   0.000000   0.000000   0.000002   0.000000   0.087614
   10  TE  2  Z   0.000000   0.000002   0.000000   0.000000   0.030284
   11  TE  2  S   0.000000   0.000000   0.000000   1.169685   0.000000
   12  TE  2  X   0.000005   0.000000   0.000000   0.000000  -0.450839
   13  TE  2  Y   0.000000   0.000000  -0.000005   0.000000  -0.217266
   14  TE  2  Z   0.000000  -0.000005   0.000000   0.000000  -0.075099
   15  TE  2 XX   0.722305  -0.435814  -0.018320  -0.282659   0.000011
   16  TE  2 YY  -0.651952  -0.536062   0.008551  -0.282659  -0.000008
   17  TE  2 ZZ  -0.070353   0.971876   0.009769  -0.282659  -0.000002
   18  TE  2 XY   0.016065  -0.006842   0.795269   0.000000  -0.000005
   19  TE  2 XZ   0.561004   0.040316  -0.010991   0.000000   0.000008
   20  TE  2 YZ  -0.011350   0.004820  -0.562743   0.000000   0.000004
   21  TE  2  S   0.000000   0.000000   0.000000   0.993257   0.000000
   22  TE  2  X  -0.000006   0.000000   0.000000   0.000000   0.951378
   23  TE  2  Y   0.000000   0.000000   0.000006   0.000000   0.458483
   24  TE  2  Z   0.000000   0.000006   0.000000   0.000000   0.158476
   25  TE  2 XX   0.052701  -0.031798  -0.001337  -0.923784  -0.000021
   26  TE  2 YY  -0.047568  -0.039113   0.000624  -0.923784   0.000017
   27  TE  2 ZZ  -0.005133   0.070911   0.000713  -0.923784   0.000004
   28  TE  2 XY   0.001172  -0.000499   0.058025   0.000000   0.000010
   29  TE  2 XZ   0.040932   0.002942  -0.000802   0.000000  -0.000015
   30  TE  2 YZ  -0.000828   0.000352  -0.041059   0.000000  -0.000007
   31  TE  2  S   0.000000   0.000000   0.000000   0.024001   0.000000
   32  TE  2  X   0.000007   0.000001   0.000000   0.000000   0.013495
   33  TE  2  Y   0.000000   0.000000  -0.000008   0.000000   0.006503
   34  TE  2  Z   0.000001  -0.000007   0.000000   0.000000   0.002248
   35  F   3  S   0.000007  -0.000002   0.000000   0.000235   0.000102
   36  F   3  S  -0.000020   0.000005   0.000000  -0.001190  -0.000713
   37  F   3  X   0.000041  -0.000010  -0.000001   0.001144   0.000375
   38  F   3  Y   0.000000   0.000000  -0.000003   0.000000  -0.000057
   39  F   3  Z   0.000014  -0.000006   0.000000   0.000404   0.000154
   40  F   4  S  -0.000003  -0.000003  -0.000006   0.000235  -0.000002
   41  F   4  S   0.000009   0.000007   0.000017  -0.001190   0.000016
   42  F   4  X   0.000012   0.000007   0.000016  -0.000572  -0.000112
   43  F   4  Y  -0.000016  -0.000012  -0.000030   0.000990  -0.000066
   44  F   4  Z  -0.000006  -0.000008  -0.000011   0.000404  -0.000023
   45  F   5  S  -0.000003  -0.000003   0.000006   0.000235  -0.000083
   46  F   5  S   0.000009   0.000008  -0.000017  -0.001190   0.000578
   47  F   5  X   0.000011   0.000008  -0.000016  -0.000572   0.000082
   48  F   5  Y   0.000015   0.000013  -0.000031  -0.000990   0.000289
   49  F   5  Z  -0.000006  -0.000008   0.000011   0.000404  -0.000161

                     21         22         23         24         25
                   -4.7414    -4.7414    -1.7207    -1.7207    -1.7207
                     A          A          A          A          A   
    1  F   1  S  -0.000103  -0.000048   0.000000   0.000000   0.001167
    2  F   1  S   0.000719   0.000333  -0.000001   0.000001  -0.004543
    3  F   1  X  -0.000008   0.000059  -0.000050  -0.000383  -0.000194
    4  F   1  Y   0.000057  -0.000104  -0.000383   0.000050  -0.000021
    5  F   1  Z   0.000409   0.000189   0.000000   0.000001  -0.002323
    6  TE  2  S   0.000000   0.000000   0.000000   0.000000   0.000000
    7  TE  2  S   0.000000   0.000000   0.000000   0.000000   0.000000
    8  TE  2  X   0.012428  -0.091863   0.000000   0.000000   0.000014
    9  TE  2  Y  -0.089103   0.161340   0.000000   0.000000   0.000002
   10  TE  2  Z   0.183173   0.084715   0.000000   0.000000   0.000013
   11  TE  2  S   0.000000   0.000000   0.000000   0.000000   0.000000
   12  TE  2  X  -0.030819   0.227804   0.000000   0.000000  -0.000037
   13  TE  2  Y   0.220959  -0.400091   0.000000   0.000000  -0.000004
   14  TE  2  Z  -0.454233  -0.210078   0.000000   0.000000  -0.000034
   15  TE  2 XX   0.000007  -0.000002   0.026535   0.204658  -0.353027
   16  TE  2 YY   0.000006   0.000008  -0.026580  -0.204593   0.071645
   17  TE  2 ZZ  -0.000013  -0.000006   0.000044  -0.000066   0.281382
   18  TE  2 XY   0.000005  -0.000010  -0.236370   0.030738   0.026429
   19  TE  2 XZ   0.000001  -0.000004  -0.043449  -0.334280  -0.173347
   20  TE  2 YZ  -0.000004   0.000007  -0.334218   0.043398  -0.018615
   21  TE  2  S  -0.000001  -0.000001   0.000000   0.000000   0.000000
   22  TE  2  X   0.065036  -0.480720   0.000000   0.000000   0.000096
   23  TE  2  Y  -0.466275   0.844288   0.000000   0.000000   0.000010
   24  TE  2  Z   0.958540   0.443314   0.000000   0.000000   0.000090
   25  TE  2 XX  -0.000014   0.000004  -0.067875  -0.523502   0.903020
   26  TE  2 YY  -0.000012  -0.000015   0.067989   0.523334  -0.183263
   27  TE  2 ZZ   0.000027   0.000013  -0.000113   0.000168  -0.719757
   28  TE  2 XY  -0.000011   0.000019   0.604618  -0.078627  -0.067604
   29  TE  2 XZ  -0.000001   0.000008   0.111141   0.855067   0.443410
   30  TE  2 YZ   0.000007  -0.000014   0.854907  -0.111009   0.047617
   31  TE  2  S   0.000000   0.000000   0.000000   0.000000   0.000000
   32  TE  2  X   0.000922  -0.006819   0.000000   0.000000  -0.000277
   33  TE  2  Y  -0.006614   0.011976   0.000000   0.000000  -0.000030
   34  TE  2  Z   0.013596   0.006288   0.000000   0.000000  -0.000259
   35  F   3  S   0.000041  -0.000033   0.000000   0.000000  -0.001563
   36  F   3  S  -0.000286   0.000229   0.000001   0.000001   0.006085
   37  F   3  X   0.000189  -0.000099  -0.000017  -0.000128  -0.002897
   38  F   3  Y   0.000057  -0.000104   0.000383  -0.000050  -0.000021
   39  F   3  Z  -0.000048  -0.000111   0.000047   0.000361  -0.001138
   40  F   4  S  -0.000010   0.000114   0.000000   0.000000   0.000089
   41  F   4  S   0.000069  -0.000798  -0.000001   0.000000  -0.000345
   42  F   4  X   0.000016  -0.000216   0.000254   0.000226  -0.000271
   43  F   4  Y   0.000016   0.000373   0.000029   0.000221   0.000112
   44  F   4  Z  -0.000135   0.000140   0.000289  -0.000221  -0.000128
   45  F   5  S   0.000072  -0.000034   0.000000   0.000000   0.000308
   46  F   5  S  -0.000502   0.000236   0.000000  -0.000001  -0.001197
   47  F   5  X  -0.000181   0.000141  -0.000188   0.000283  -0.000460
   48  F   5  Y  -0.000243   0.000037  -0.000029  -0.000221  -0.000481
   49  F   5  Z   0.000005  -0.000112  -0.000336  -0.000139   0.000006

                     26         27         28         29         30
                   -1.7207    -1.7207    -1.3851    -1.3828    -1.3828
                     A          A          A          A          A   
    1  F   1  S   0.001037  -0.000703  -0.131192   0.172921   0.133386
    2  F   1  S  -0.004036   0.002736   0.510134  -0.672772  -0.518954
    3  F   1  X   0.000134  -0.000125   0.000000   0.000003  -0.000006
    4  F   1  Y   0.000165   0.000209   0.000000   0.000005  -0.000003
    5  F   1  Z  -0.002063   0.001399   0.005862  -0.005047  -0.003892
    6  TE  2  S   0.000000   0.000000   0.001392   0.000000   0.000001
    7  TE  2  S   0.000000   0.000000  -0.004264   0.000000  -0.000002
    8  TE  2  X  -0.000010   0.000009   0.000000   0.000825  -0.001716
    9  TE  2  Y  -0.000012  -0.000015   0.000002   0.001266  -0.000769
   10  TE  2  Z   0.000012  -0.000008   0.000001  -0.001759  -0.001357
   11  TE  2  S   0.000000   0.000000   0.018980  -0.000002   0.000007
   12  TE  2  X   0.000025  -0.000024   0.000001  -0.002085   0.004337
   13  TE  2  Y   0.000031   0.000039  -0.000005  -0.003200   0.001943
   14  TE  2  Z  -0.000031   0.000021  -0.000002   0.004446   0.003431
   15  TE  2 XX   0.021273  -0.052148  -0.004295   0.000418   0.002661
   16  TE  2 YY  -0.271259   0.221608  -0.004296   0.002059  -0.000754
   17  TE  2 ZZ   0.249986  -0.169460  -0.004294  -0.002476  -0.001912
   18  TE  2 XY  -0.208359  -0.263558   0.000002   0.001455  -0.000883
   19  TE  2 XZ   0.119305  -0.111721   0.000000  -0.000670   0.001394
   20  TE  2 YZ   0.147378   0.186396  -0.000002  -0.001029   0.000625
   21  TE  2  S  -0.000001   0.000000   0.080655  -0.000008   0.000029
   22  TE  2  X  -0.000066   0.000062  -0.000002   0.005246  -0.010914
   23  TE  2  Y  -0.000081  -0.000103   0.000012   0.008053  -0.004889
   24  TE  2  Z   0.000080  -0.000054   0.000005  -0.011190  -0.008635
   25  TE  2 XX  -0.054415   0.133391  -0.045202  -0.001066  -0.006853
   26  TE  2 YY   0.693863  -0.566860  -0.045200  -0.005281   0.001915
   27  TE  2 ZZ  -0.639447   0.433468  -0.045205   0.006361   0.004889
   28  TE  2 XY   0.532970   0.674164  -0.000006  -0.003735   0.002268
   29  TE  2 XZ  -0.305174   0.285774  -0.000001   0.001721  -0.003580
   30  TE  2 YZ  -0.376984  -0.476790   0.000004   0.002641  -0.001604
   31  TE  2  S   0.000000   0.000000   0.072357  -0.000007   0.000026
   32  TE  2  X   0.000191  -0.000178   0.000007  -0.015903   0.033084
   33  TE  2  Y   0.000235   0.000297  -0.000036  -0.024411   0.014822
   34  TE  2  Z  -0.000230   0.000156  -0.000017   0.033921   0.026177
   35  F   3  S   0.000463  -0.000523  -0.131116   0.018803  -0.203520
   36  F   3  S  -0.001802   0.002034   0.509836  -0.073156   0.791821
   37  F   3  X   0.000934  -0.001029  -0.005525   0.000520  -0.005600
   38  F   3  Y   0.000165   0.000209   0.000000   0.000005  -0.000003
   39  F   3  Z   0.000121  -0.000210  -0.001953   0.000176  -0.001983
   40  F   4  S   0.000114   0.001706  -0.130913   0.005762  -0.026715
   41  F   4  S  -0.000445  -0.006640   0.509047  -0.022418   0.103939
   42  F   4  X   0.000035  -0.001600   0.002760  -0.000076   0.000361
   43  F   4  Y   0.000336   0.002764  -0.004780   0.000142  -0.000639
   44  F   4  Z  -0.000092   0.001153  -0.001951   0.000050  -0.000265
   45  F   5  S  -0.001614  -0.000480  -0.131211  -0.197436   0.096662
   46  F   5  S   0.006283   0.001870   0.510206   0.768149  -0.376074
   47  F   5  X   0.001530   0.000290   0.002764   0.002716  -0.001334
   48  F   5  Y   0.002582   0.000928   0.004787   0.004703  -0.002303
   49  F   5  Z  -0.001149  -0.000184  -0.001954  -0.001925   0.000934

                     31         32         33         34         35
                   -1.3828    -0.6389    -0.4536    -0.4536    -0.4536
                     A          A          A          A          A   
    1  F   1  S   0.065088   0.018771  -0.001403  -0.003027  -0.003860
    2  F   1  S  -0.253233  -0.085444   0.006693   0.014438   0.018413
    3  F   1  X   0.000005   0.000000  -0.344849   0.436491  -0.216891
    4  F   1  Y  -0.000007   0.000000   0.458747   0.201343  -0.324739
    5  F   1  Z  -0.001898   0.121710  -0.019786  -0.042680  -0.054430
    6  TE  2  S   0.000001   0.018517   0.000000   0.000000   0.000000
    7  TE  2  S  -0.000003  -0.057608   0.000000   0.000000   0.000000
    8  TE  2  X   0.001324   0.000000   0.005083  -0.006432   0.003196
    9  TE  2  Y  -0.001784   0.000000  -0.006762  -0.002967   0.004785
   10  TE  2  Z  -0.000663   0.000000  -0.002420  -0.005220  -0.006658
   11  TE  2  S   0.000016   0.256284   0.000000   0.000000   0.000000
   12  TE  2  X  -0.003347   0.000000  -0.012872   0.016288  -0.008092
   13  TE  2  Y   0.004510   0.000000   0.017123   0.007513  -0.012116
   14  TE  2  Z   0.001677   0.000000   0.006128   0.013218   0.016858
   15  TE  2 XX  -0.000855  -0.059161   0.000023  -0.000068  -0.000010
   16  TE  2 YY   0.001781  -0.059161  -0.000046   0.000018  -0.000053
   17  TE  2 ZZ  -0.000937  -0.059161   0.000023   0.000049   0.000063
   18  TE  2 XY  -0.002051   0.000000   0.000052   0.000023  -0.000037
   19  TE  2 XZ  -0.001076   0.000000   0.000028  -0.000035   0.000018
   20  TE  2 YZ   0.001450   0.000000  -0.000037  -0.000016   0.000026
   21  TE  2  S   0.000066   0.706175   0.000000  -0.000001  -0.000001
   22  TE  2  X   0.008423   0.000000   0.032823  -0.041533   0.020635
   23  TE  2  Y  -0.011350   0.000001  -0.043664  -0.019158   0.030896
   24  TE  2  Z  -0.004219   0.000000  -0.015626  -0.033707  -0.042986
   25  TE  2 XX   0.002148  -0.436468  -0.000058   0.000175   0.000027
   26  TE  2 YY  -0.004619  -0.436468   0.000117  -0.000047   0.000137
   27  TE  2 ZZ   0.002360  -0.436468  -0.000059  -0.000127  -0.000162
   28  TE  2 XY   0.005265   0.000000  -0.000135  -0.000059   0.000095
   29  TE  2 XZ   0.002763   0.000000  -0.000072   0.000091  -0.000045
   30  TE  2 YZ  -0.003723   0.000000   0.000095   0.000042  -0.000067
   31  TE  2  S   0.000059   0.987445   0.000001   0.000000   0.000000
   32  TE  2  X  -0.025535   0.000000  -0.106573   0.134853  -0.067000
   33  TE  2  Y   0.034407  -0.000002   0.141772   0.062205  -0.100316
   34  TE  2  Z   0.012790  -0.000001   0.050737   0.109443   0.139573
   35  F   3  S   0.100876   0.018771  -0.002311   0.004525  -0.000460
   36  F   3  S  -0.392472  -0.085444   0.011024  -0.021586   0.002196
   37  F   3  X   0.002776  -0.114749  -0.059160  -0.122968  -0.159922
   38  F   3  Y  -0.000007   0.000000   0.458604   0.201282  -0.324638
   39  F   3  Z   0.000977  -0.040570   0.265094   0.156380   0.471799
   40  F   4  S  -0.226399   0.018771   0.005058   0.000655  -0.000105
   41  F   4  S   0.880831  -0.085444  -0.024130  -0.003127   0.000501
   42  F   4  X   0.003117   0.057374  -0.032148   0.476501  -0.223142
   43  F   4  Y  -0.005396  -0.099375  -0.082711   0.131010  -0.313142
   44  F   4  Z  -0.002203  -0.040570  -0.056849   0.325239   0.455912
   45  F   5  S   0.060006   0.018771  -0.001344  -0.002154   0.004425
   46  F   5  S  -0.233461  -0.085444   0.006412   0.010274  -0.021110
   47  F   5  X  -0.000819   0.057375  -0.427958   0.303370   0.056717
   48  F   5  Y  -0.001433   0.099376   0.314877  -0.029277   0.149163
   49  F   5  Z   0.000580  -0.040570   0.222928   0.448427   0.258376

                     36         37         38         39         40
                   -0.4486    -0.4486    -0.4486    -0.4486    -0.4486
                     A          A          A          A          A   
    1  F   1  S   0.000001  -0.000001   0.000001   0.000001  -0.000001
    2  F   1  S  -0.000004   0.000007  -0.000004  -0.000007   0.000004
    3  F   1  X  -0.486882  -0.206310   0.321971   0.151622   0.467450
    4  F   1  Y  -0.331804   0.459882  -0.262127   0.470448  -0.114929
    5  F   1  Z   0.000011  -0.000020   0.000013   0.000020  -0.000011
    6  TE  2  S   0.000000   0.000000   0.000000   0.000000   0.000000
    7  TE  2  S   0.000000   0.000000   0.000000   0.000000   0.000000
    8  TE  2  X   0.000000   0.000001   0.000003   0.000002   0.000001
    9  TE  2  Y  -0.000001   0.000001   0.000000   0.000001   0.000002
   10  TE  2  Z   0.000001  -0.000002   0.000002   0.000002  -0.000001
   11  TE  2  S   0.000000   0.000000   0.000000   0.000000   0.000000
   12  TE  2  X   0.000001  -0.000004  -0.000008  -0.000006  -0.000003
   13  TE  2  Y   0.000002  -0.000004   0.000001  -0.000003  -0.000004
   14  TE  2  Z  -0.000003   0.000006  -0.000004  -0.000006   0.000003
   15  TE  2 XX  -0.000001  -0.000010  -0.000002   0.000053   0.000187
   16  TE  2 YY   0.000001   0.000010   0.000002  -0.000053  -0.000187
   17  TE  2 ZZ   0.000000   0.000000   0.000000   0.000000   0.000000
   18  TE  2 XY  -0.000001  -0.000005   0.000008  -0.000216   0.000061
   19  TE  2 XZ   0.000002   0.000016   0.000004  -0.000087  -0.000305
   20  TE  2 YZ  -0.000002  -0.000007   0.000011  -0.000306   0.000087
   21  TE  2  S   0.000000   0.000000   0.000000   0.000000   0.000000
   22  TE  2  X  -0.000002   0.000010   0.000020   0.000015   0.000007
   23  TE  2  Y  -0.000004   0.000009  -0.000001   0.000008   0.000010
   24  TE  2  Z   0.000008  -0.000016   0.000010   0.000016  -0.000009
   25  TE  2 XX   0.000003   0.000026   0.000006  -0.000138  -0.000484
   26  TE  2 YY  -0.000003  -0.000026  -0.000006   0.000138   0.000485
   27  TE  2 ZZ   0.000000   0.000000   0.000000   0.000000   0.000000
   28  TE  2 XY   0.000004   0.000012  -0.000020   0.000560  -0.000159
   29  TE  2 XZ  -0.000005  -0.000042  -0.000010   0.000225   0.000791
   30  TE  2 YZ   0.000005   0.000017  -0.000028   0.000792  -0.000225
   31  TE  2  S   0.000000   0.000000   0.000000   0.000000   0.000000
   32  TE  2  X   0.000005  -0.000031  -0.000064  -0.000048  -0.000024
   33  TE  2  Y   0.000014  -0.000030   0.000004  -0.000026  -0.000034
   34  TE  2  Z  -0.000027   0.000051  -0.000032  -0.000051   0.000028
   35  F   3  S   0.000000   0.000000  -0.000002  -0.000002   0.000000
   36  F   3  S   0.000001   0.000002   0.000009   0.000008   0.000002
   37  F   3  X   0.160373   0.051742  -0.111357   0.040547   0.164298
   38  F   3  Y   0.267603   0.191273   0.527319  -0.464909   0.150480
   39  F   3  Z  -0.453597  -0.146334   0.315049  -0.114608  -0.464688
   40  F   4  S   0.000000   0.000000   0.000001   0.000000   0.000000
   41  F   4  S   0.000000  -0.000001  -0.000003   0.000002   0.000001
   42  F   4  X   0.023650  -0.233503  -0.466979  -0.384559  -0.255815
   43  F   4  Y   0.033883  -0.311113  -0.129169  -0.081767  -0.295240
   44  F   4  Z  -0.049549   0.431837  -0.344038  -0.343542   0.361419
   45  F   5  S  -0.000001   0.000002   0.000000   0.000001   0.000001
   46  F   5  S   0.000003  -0.000007  -0.000002  -0.000004  -0.000006
   47  F   5  X   0.302900   0.387830   0.255868   0.192017  -0.376114
   48  F   5  Y   0.030428  -0.340272  -0.135989   0.076024   0.259427
   49  F   5  Z   0.502926  -0.285086   0.028729   0.457740   0.103500

                     41         42         43         44         45
                   -0.3495    -0.3495    -0.3495    -0.1381     0.0625
                     A          A          A          A          A   
    1  F   1  S  -0.016526  -0.010090  -0.005947  -0.004336  -0.011758
    2  F   1  S   0.079245   0.048381   0.028516   0.021008   0.058053
    3  F   1  X   0.036756  -0.103384   0.073257   0.000000   0.014764
    4  F   1  Y   0.066845  -0.048979  -0.102659   0.000000   0.022290
    5  F   1  Z  -0.426662  -0.260486  -0.153536   0.487964   0.510900
    6  TE  2  S   0.000000   0.000000   0.000000  -0.006825   0.000000
    7  TE  2  S   0.000000   0.000000   0.000000   0.021638   0.000000
    8  TE  2  X   0.009862  -0.027738   0.019655   0.000000   0.012456
    9  TE  2  Y   0.017934  -0.013141  -0.027543   0.000000   0.018807
   10  TE  2  Z  -0.028880  -0.017632  -0.010393   0.000000  -0.024684
   11  TE  2  S   0.000000   0.000000   0.000001  -0.095586   0.000000
   12  TE  2  X  -0.024973   0.070243  -0.049774   0.000000  -0.031556
   13  TE  2  Y  -0.045416   0.033278   0.069750   0.000001  -0.047643
   14  TE  2  Z   0.073136   0.044651   0.026318   0.000000   0.062531
   15  TE  2 XX   0.000242   0.000920  -0.000282   0.022532  -0.000178
   16  TE  2 YY   0.000693  -0.000350   0.000618   0.022532  -0.001064
   17  TE  2 ZZ  -0.000935  -0.000571  -0.000337   0.022532   0.001242
   18  TE  2 XY   0.000474  -0.000347  -0.000728   0.000000  -0.000773
   19  TE  2 XZ  -0.000184   0.000518  -0.000367   0.000000   0.000362
   20  TE  2 YZ  -0.000335   0.000246   0.000515   0.000000   0.000546
   21  TE  2  S   0.000001   0.000001   0.000002  -0.088520   0.000000
   22  TE  2  X   0.063730  -0.179253   0.127018   0.000000   0.080749
   23  TE  2  Y   0.115898  -0.084922  -0.177997  -0.000001   0.121914
   24  TE  2  Z  -0.186635  -0.113945  -0.067161  -0.000001  -0.160013
   25  TE  2 XX  -0.000629  -0.002394   0.000731   0.083408   0.000462
   26  TE  2 YY  -0.001803   0.000908  -0.001609   0.083408   0.002767
   27  TE  2 ZZ   0.002431   0.001484   0.000873   0.083408  -0.003229
   28  TE  2 XY  -0.001233   0.000903   0.001893   0.000000   0.002009
   29  TE  2 XZ   0.000479  -0.001348   0.000955   0.000000  -0.000941
   30  TE  2 YZ   0.000872  -0.000639  -0.001339   0.000000  -0.001420
   31  TE  2  S   0.000000   0.000001   0.000004  -0.364481   0.000000
   32  TE  2  X  -0.207423   0.583418  -0.413409  -0.000001  -0.266459
   33  TE  2  Y  -0.377216   0.276397   0.579329   0.000004  -0.402298
   34  TE  2  Z   0.607445   0.370857   0.218590   0.000002   0.528018
   35  F   3  S   0.000188   0.018328  -0.008622  -0.004336  -0.001675
   36  F   3  S  -0.000903  -0.087885   0.041342   0.021008   0.008269
   37  F   3  X   0.033330  -0.436949   0.230172  -0.460056  -0.057779
   38  F   3  Y   0.066845  -0.048980  -0.102660   0.000000   0.022290
   39  F   3  Z  -0.108856  -0.183652   0.016742  -0.162655  -0.054904
   40  F   4  S  -0.000210   0.002021   0.020154  -0.004336  -0.000598
   41  F   4  S   0.001009  -0.009689  -0.096638   0.021007   0.002953
   42  F   4  X   0.034844  -0.085003   0.256650   0.230028   0.027717
   43  F   4  Y   0.070164  -0.080828  -0.420304  -0.398421  -0.000144
   44  F   4  Z  -0.106294  -0.078722  -0.168413  -0.162655  -0.038415
   45  F   5  S   0.016549  -0.010259  -0.005585  -0.004336   0.014031
   46  F   5  S  -0.079351   0.049193   0.026779   0.021008  -0.069275
   47  F   5  X   0.187345  -0.196740   0.022436   0.230028  -0.289092
   48  F   5  Y   0.327672  -0.210676  -0.190683   0.398420  -0.504004
   49  F   5  Z  -0.214124   0.000296  -0.002799  -0.162655   0.185603

                     46         47         48         49
                    0.0625     0.0625    11.9010   370.6674
                     A          A          A          A   
    1  F   1  S  -0.009831  -0.004338   0.004517  -0.000802
    2  F   1  S   0.048537   0.021418  -0.024958   0.004543
    3  F   1  X  -0.028120   0.023707   0.000000   0.000000
    4  F   1  Y  -0.013480  -0.029870   0.000000   0.000000
    5  F   1  Z   0.427155   0.188494  -0.023484   0.004342
    6  TE  2  S   0.000000   0.000000  -0.061706  -0.643013
    7  TE  2  S   0.000000   0.000000   0.394005   0.172155
    8  TE  2  X  -0.023725   0.020002   0.000000   0.000000
    9  TE  2  Y  -0.011373  -0.025201   0.000000   0.000000
   10  TE  2  Z  -0.020638  -0.009107   0.000000   0.000000
   11  TE  2  S   0.000000   0.000000  -0.867885  49.854062
   12  TE  2  X   0.060103  -0.050672   0.000000   0.000000
   13  TE  2  Y   0.028811   0.063842   0.000000   0.000000
   14  TE  2  Z   0.052281   0.023071   0.000000   0.000000
   15  TE  2 XX  -0.001364   0.000483   0.359304 -22.362421
   16  TE  2 YY   0.000325  -0.000941   0.359304 -22.362421
   17  TE  2 ZZ   0.001039   0.000458   0.359304 -22.362421
   18  TE  2 XY   0.000467   0.001036   0.000000   0.000000
   19  TE  2 XZ  -0.000689   0.000581   0.000000   0.000000
   20  TE  2 YZ  -0.000330  -0.000732   0.000000   0.000000
   21  TE  2  S   0.000000   0.000000  89.109530  -9.410456
   22  TE  2  X  -0.153799   0.129665   0.000000   0.000000
   23  TE  2  Y  -0.073725  -0.163368   0.000000   0.000000
   24  TE  2  Z  -0.133784  -0.059036   0.000000   0.000000
   25  TE  2 XX   0.003544  -0.001255 -39.909591   4.307681
   26  TE  2 YY  -0.000845   0.002446 -39.909591   4.307681
   27  TE  2 ZZ  -0.002700  -0.001191 -39.909591   4.307681
   28  TE  2 XY  -0.001215  -0.002692   0.000000   0.000000
   29  TE  2 XZ   0.001792  -0.001511   0.000000   0.000000
   30  TE  2 YZ   0.000859   0.001903   0.000000   0.000000
   31  TE  2  S   0.000001   0.000001   0.572802  -0.100167
   32  TE  2  X   0.507512  -0.427875   0.000000   0.000000
   33  TE  2  Y   0.243280   0.539089   0.000000   0.000000
   34  TE  2  Z   0.441467   0.194810   0.000000   0.000000
   35  F   3  S   0.013932  -0.007537   0.004517  -0.000802
   36  F   3  S  -0.068786   0.037213  -0.024958   0.004543
   37  F   3  X   0.575302  -0.302739   0.022141  -0.004094
   38  F   3  Y  -0.013480  -0.029870   0.000000   0.000000
   39  F   3  Z   0.188882  -0.126210   0.007828  -0.001447
   40  F   4  S   0.002373   0.015739   0.004517  -0.000802
   41  F   4  S  -0.011715  -0.077709  -0.024958   0.004543
   42  F   4  X  -0.079503  -0.317144  -0.011071   0.002047
   43  F   4  Y   0.075518   0.560503   0.019175  -0.003545
   44  F   4  Z   0.011873   0.230225   0.007828  -0.001447
   45  F   5  S  -0.006474  -0.003864   0.004517  -0.000802
   46  F   5  S   0.031964   0.019078  -0.024958   0.004543
   47  F   5  X   0.112080   0.107388  -0.011071   0.002047
   48  F   5  Y   0.229353   0.115070  -0.019175   0.003545
   49  F   5  Z  -0.123596  -0.069965   0.007828  -0.001447
 ...... END OF RHF CALCULATION ......
 STEP CPU TIME =     0.45 TOTAL CPU TIME =        1.4 (    0.0 MIN)
 TOTAL WALL CLOCK TIME=        7.2 SECONDS, CPU UTILIZATION IS  19.28%

          -----------------
          ENERGY COMPONENTS
          -----------------

         WAVEFUNCTION NORMALIZATION =       1.0000000000

                ONE ELECTRON ENERGY =  -10477.5354548737
                TWO ELECTRON ENERGY =    3088.0413414754
           NUCLEAR REPULSION ENERGY =     447.1529105416
                                      ------------------
                       TOTAL ENERGY =   -6942.3412028568

 ELECTRON-ELECTRON POTENTIAL ENERGY =    3088.0413414754
  NUCLEUS-ELECTRON POTENTIAL ENERGY =  -17356.2382155820
   NUCLEUS-NUCLEUS POTENTIAL ENERGY =     447.1529105416
                                      ------------------
             TOTAL POTENTIAL ENERGY =  -13821.0439635650
               TOTAL KINETIC ENERGY =    6878.7027607082
                 VIRIAL RATIO (V/T) =       2.0092515180

          ---------------------------------------
          MULLIKEN AND LOWDIN POPULATION ANALYSES
          ---------------------------------------

     MULLIKEN ATOMIC POPULATION IN EACH MOLECULAR ORBITAL

                      1          2          3          4          5

                  2.000000   2.000000   2.000000   2.000000   2.000000

    1             0.000000   0.000000   0.000000   0.000000   0.000000
    2             2.000000   2.000000   2.000000   2.000000   2.000000
    3             0.000000   0.000000   0.000000   0.000000   0.000000
    4             0.000000   0.000000   0.000000   0.000000   0.000000
    5             0.000000   0.000000   0.000000   0.000000   0.000000

                      6          7          8          9         10

                  2.000000   2.000000   2.000000   2.000000   2.000000

    1             0.000000   0.000000   0.000000   0.000000   0.618171
    2             2.000000   2.000000   2.000000   2.000000  -0.000019
    3             0.000000   0.000000   0.000000   0.000000   0.461903
    4             0.000000   0.000000   0.000000   0.000000   0.253753
    5             0.000000   0.000000   0.000000   0.000000   0.666193

                     11         12         13         14         15

                  2.000000   2.000000   2.000000   2.000000   2.000000

    1             0.923825   0.391473   0.066548   0.000000   0.000000
    2            -0.000017  -0.000017  -0.000017   2.000000   2.000000
    3             0.010774   1.376900   0.150440   0.000000   0.000000
    4             0.000989   0.019513   1.725763   0.000000   0.000000
    5             1.064428   0.212131   0.057266   0.000000   0.000000

                     16         17         18         19         20

                  2.000000   2.000000   2.000000   2.000000   2.000000

    1             0.000000   0.000000   0.000000   0.000002   0.000000
    2             2.000000   2.000000   2.000000   1.999990   2.000004
    3             0.000000   0.000000   0.000000   0.000002  -0.000002
    4             0.000000   0.000000   0.000000   0.000002   0.000000
    5             0.000000   0.000000   0.000000   0.000002  -0.000002

                     21         22         23         24         25

                  2.000000   2.000000   2.000000   2.000000   2.000000

    1            -0.000002  -0.000001   0.000000   0.000000   0.000055
    2             2.000004   2.000004   1.999999   1.999999   1.999842
    3             0.000000   0.000000   0.000000   0.000000   0.000099
    4             0.000000  -0.000003   0.000000   0.000000   0.000000
    5            -0.000001   0.000000   0.000000   0.000000   0.000004

                     26         27         28         29         30

                  2.000000   2.000000   2.000000   2.000000   2.000000

    1             0.000043   0.000020   0.494752   0.858020   0.510528
    2             1.999842   1.999842   0.023534   0.012338   0.012338
    3             0.000009   0.000011   0.494174   0.010145   1.188546
    4             0.000001   0.000117   0.492649   0.000953   0.020480
    5             0.000105   0.000009   0.494891   1.118544   0.268108

                     31         32         33         34         35

                  2.000000   2.000000   2.000000   2.000000   2.000000

    1             0.121563   0.047972   0.662761   0.468824   0.313826
    2             0.012338   1.808113   0.073833   0.073835   0.073837
    3             0.291997   0.047972   0.571336   0.162942   0.710402
    4             1.470781   0.047971   0.024842   0.703271   0.714701
    5             0.103321   0.047972   0.667227   0.591127   0.187234

                     36         37         38         39         40

                  2.000000   2.000000   2.000000   2.000000   2.000000

    1             0.694296   0.508109   0.344751   0.488621   0.463436
    2             0.000000   0.000000   0.000000   0.000001   0.000001
    3             0.606162   0.121352   0.779443   0.461840   0.531145
    4             0.008325   0.675596   0.706232   0.545186   0.566464
    5             0.691217   0.694943   0.169574   0.504352   0.438953

                     41         42         43         44

                  2.000000   2.000000   2.000000   2.000000

    1             0.422215   0.177370   0.082423   0.457854
    2             1.090653   1.090655   1.090661   0.168581
    3             0.031929   0.511964   0.138115   0.457854
    4             0.031944   0.037715   0.612348   0.457856
    5             0.423259   0.182296   0.076452   0.457854

               ----- POPULATIONS IN EACH AO -----
                             MULLIKEN      LOWDIN
              1  F   1  S     1.99996     1.99992
              2  F   1  S     1.99736     1.99593
              3  F   1  X     1.99771     1.99770
              4  F   1  Y     1.99771     1.99770
              5  F   1  Z     1.12472     1.12804
              6  TE  2  S     2.00151     1.99901
              7  TE  2  S     1.97682     1.99185
              8  TE  2  X     2.00005     1.99985
              9  TE  2  Y     2.00005     1.99985
             10  TE  2  Z     2.00005     1.99985
             11  TE  2  S     2.10735     0.81128
             12  TE  2  X     1.99901     1.99817
             13  TE  2  Y     1.99901     1.99817
             14  TE  2  Z     1.99901     1.99817
             15  TE  2 XX     1.30226     1.73202
             16  TE  2 YY     1.30226     1.73202
             17  TE  2 ZZ     1.30226     1.73202
             18  TE  2 XY     2.00000     2.00000
             19  TE  2 XZ     2.00000     2.00000
             20  TE  2 YZ     2.00000     2.00000
             21  TE  2  S    -0.12458     0.73403
             22  TE  2  X     1.99745     1.98014
             23  TE  2  Y     1.99745     1.98014
             24  TE  2  Z     1.99745     1.98014
             25  TE  2 XX     2.04216     1.75591
             26  TE  2 YY     2.04216     1.75591
             27  TE  2 ZZ     2.04215     1.75591
             28  TE  2 XY     1.99998     1.99998
             29  TE  2 XZ     1.99999     1.99999
             30  TE  2 YZ     1.99999     1.99999
             31  TE  2  S     2.00583     1.99998
             32  TE  2  X     1.18018     1.19617
             33  TE  2  Y     1.18018     1.19617
             34  TE  2  Z     1.18018     1.19617
             35  F   3  S     1.99996     1.99992
             36  F   3  S     1.99736     1.99593
             37  F   3  X     1.22172     1.22467
             38  F   3  Y     1.99771     1.99770
             39  F   3  Z     1.90071     1.90107
             40  F   4  S     1.99996     1.99992
             41  F   4  S     1.99736     1.99593
             42  F   4  X     1.80371     1.80444
             43  F   4  Y     1.41571     1.41792
             44  F   4  Z     1.90071     1.90107
             45  F   5  S     1.99996     1.99992
             46  F   5  S     1.99736     1.99593
             47  F   5  X     1.80371     1.80444
             48  F   5  Y     1.41572     1.41792
             49  F   5  Z     1.90071     1.90107

          ----- MULLIKEN ATOMIC OVERLAP POPULATIONS -----
          (OFF-DIAGONAL ELEMENTS NEED TO BE MULTIPLIED BY 2)

             1           2           3           4           5

    1    9.0665230
    2    0.0509351  51.3264348
    3    0.0000002   0.0509352   9.0665205
    4    0.0000002   0.0509353   0.0000002   9.0665149
    5    0.0000002   0.0509350   0.0000002   0.0000002   9.0665234

          TOTAL MULLIKEN AND LOWDIN ATOMIC POPULATIONS
       ATOM         MULL.POP.    CHARGE          LOW.POP.     CHARGE
    1 F             9.117459   -0.117459         9.119275   -0.119275
    2 TE           51.530175    0.469825        51.522910    0.477090
    3 F             9.117456   -0.117456         9.119273   -0.119273
    4 F             9.117451   -0.117451         9.119267   -0.119267
    5 F             9.117459   -0.117459         9.119275   -0.119275

          -------------------------------
          BOND ORDER AND VALENCE ANALYSIS     BOND ORDER THRESHOLD=0.050
          -------------------------------

                   BOND                       BOND                       BOND
  ATOM PAIR DIST  ORDER      ATOM PAIR DIST  ORDER      ATOM PAIR DIST  ORDER
    1   2  2.568  0.727        1   3  4.193  0.089        1   4  4.193  0.089
    1   5  4.193  0.089        2   3  2.568  0.727        2   4  2.568  0.727
    2   5  2.568  0.727        3   4  4.193  0.089        3   5  4.193  0.089
    4   5  4.193  0.089

                       TOTAL       BONDED        FREE
      ATOM            VALENCE     VALENCE     VALENCE
    1 F                 0.994       0.994       0.000
    2 TE                2.907       2.907       0.000
    3 F                 0.994       0.994       0.000
    4 F                 0.994       0.994       0.000
    5 F                 0.994       0.994       0.000

          ---------------------
          ELECTROSTATIC MOMENTS
          ---------------------

 POINT   1           X           Y           Z (BOHR)    CHARGE
                 0.000000    0.000000    4.852061        0.00 (A.U.)
         DX          DY          DZ         /D/  (DEBYE)
    -0.000016    0.000088    0.000042    0.000099
 ...... END OF PROPERTY EVALUATION ......
 STEP CPU TIME =     0.02 TOTAL CPU TIME =        1.4 (    0.0 MIN)
 TOTAL WALL CLOCK TIME=        7.4 SECONDS, CPU UTILIZATION IS  19.18%
 100000 WORDS OF DYNAMIC MEMORY USED
 EXECUTION OF GAMESS TERMINATED NORMALLY Tue Feb 17 10:00:08 2004

DATA SERVER STATS: TOTAL DISTRIBUTED MEMORY USED (MEMDDI)=       0 MWORDS.
FIRST DATA SERVER'S MAXIMUM MEMORY=             0 WORDS, CPU=     0.0 SECONDS.

ddikick: all processes have ended gracefully. 
----- accounting info -----
Tue Feb 17 10:00:11 BRT 2004
Files used on the master node limes.iqm.unicamp.br were:
-rw-rw-r--    1 lmartine lmartine      817 Feb 17 10:00 /home/lmartinez/hf/gamess/scratch/UF4.F05
-rw-rw-r--    1 lmartine lmartine     2.9M Feb 17 10:00 /home/lmartinez/hf/gamess/scratch/UF4.F08
-rw-rw-r--    1 lmartine lmartine     409k Feb 17 10:00 /home/lmartinez/hf/gamess/scratch/UF4.F10
-rw-rw-r--    1 lmartine lmartine      39k Feb 17 10:00 /home/lmartinez/hf/gamess/scratch/UF4.dat
1.150u 0.300s 0:11.51 12.5%	0+0k 0+0io 3979pf+0w
